********************************************************************************
*                       GENERAL UTILITY LATTICE PROGRAM                        *
*                                 Julian Gale                                  *
*                      Nanochemistry Research Institute                        *
*                           Department of Chemistry                            *
*                    Curtin University, Western Australia                      *
********************************************************************************
* Version = 4.3.2 * Last modified =  3rd March 2015                            *
********************************************************************************
*  optimise     - perform optimisation run                                     *
*  cell_only    - only optimise unit cell                                      *
*  property     - calculate properties for final geometry                      *
********************************************************************************

  Job Started  at 09:45.28  6th April      2017                               

  Number of CPUs =     1


  Total number of configurations input =   1

********************************************************************************
*  Input for Configuration =   1                                               *
********************************************************************************

  Formula = K4Ca4F12                                                    

  Number of irreducible atoms/shells =       6


  Total number atoms/shells =      32

  Dimensionality = 3               :  Bulk   


  Symmetry :

  Crystal family                   :  Orthorhombic
  Crystal class  (Groth - 1921)    :  Orthorhombic Bipyramidal             

  Space group (centrosymmetric)    :  P N M A         

  Patterson group                  :  P m m m  

  Cartesian lattice vectors (Angstroms) :

        6.223500    0.000000    0.000000
        0.000000    8.710300    0.000000
        0.000000    0.000000    6.118000

  Cell parameters (Angstroms/Degrees):

  a =       6.2235    alpha =  90.0000
  b =       8.7103    beta  =  90.0000
  c =       6.1180    gamma =  90.0000

  Initial cell volume =         331.647921 Angs**3

  Temperature of configuration =  0.000     K 

  Pressure of configuration =         0.000 GPa 

  Fractional coordinates of asymmetric unit :

--------------------------------------------------------------------------------
   No.  Atomic       x           y          z         Charge      Occupancy
        Label      (Frac)      (Frac)     (Frac)        (e)         (Frac)  
--------------------------------------------------------------------------------
      1 K     c    0.042000    0.250000    0.490600     1.50000    1.000000    
      2 Ca    c    0.000000    0.000000    0.000000     2.00000    1.000000    
      3 F     c    0.471500    0.250000    0.581200     0.37800    1.000000    
      4 F     c    0.291600    0.040400    0.206800     0.37800    1.000000    
      5 F     s    0.471500    0.250000    0.581200    -1.54467    1.000000    
      6 F     s    0.291600    0.040400    0.206800    -1.54467    1.000000    
--------------------------------------------------------------------------------



********************************************************************************
*  General input information                                                   *
********************************************************************************

  Species output for all configurations : 

--------------------------------------------------------------------------------
  Species    Type    Atomic    Atomic    Charge       Radii (Angs)     Library
                     Number     Mass       (e)     Cova   Ionic  VDW   Symbol
--------------------------------------------------------------------------------
    K        Core       19      39.10   1.500000   1.330  0.000  2.800          
    Ca       Core       20      40.08   2.000000   0.990  0.000  2.750          
    F        Core        9      19.00   0.378000   0.710  0.000  1.300          
    F        Shell       9       0.00  -1.544667   0.710  0.000  1.300          
--------------------------------------------------------------------------------


  Lattice summation method               =    Ewald          (3-D)
                                         =    Parry          (2-D)
                                         =    Saunders et al (1-D)
  Accuracy factor for lattice sums       =   12.000


  Time limit = Infinity

  Maximum range for interatomic potentials =    100000.000000 Angstroms

  General interatomic potentials :

--------------------------------------------------------------------------------
Atom  Types   Potential         A         B         C         D     Cutoffs(Ang)
  1     2                                                            Min    Max 
--------------------------------------------------------------------------------
K    c K    c Buckingham    0.219E+04 0.192      0.00      0.00     0.000 40.000
Ca   c F    s Buckingham    0.148E+04 0.266      0.00      0.00     0.000 40.000
F    s F    s Buckingham     912.     0.271      13.8      0.00     0.000 40.000
K    c F    s Buckingham    0.352E+04 0.267      0.00      0.00     0.000 40.000
F    c F    s Spring (c-s)   30.6      0.00      0.00      0.00     0.000  0.800
--------------------------------------------------------------------------------

********************************************************************************
*  Output for configuration   1                                                *
********************************************************************************


  Components of energy : 

--------------------------------------------------------------------------------
  Interatomic potentials     =          10.64709953 eV
  Monopole - monopole (real) =         -92.25115959 eV
  Monopole - monopole (recip)=        -114.71580049 eV
  Monopole - monopole (total)=        -206.96696008 eV
--------------------------------------------------------------------------------
  Total lattice energy       =        -196.31986055 eV
--------------------------------------------------------------------------------
  Total lattice energy       =          -18941.8655 kJ/(mole unit cells)
--------------------------------------------------------------------------------


  Number of variables =        3

  Maximum number of calculations  =          1000
  Maximum Hessian update interval =            10
  Maximum step size               =   1.000000000
  Maximum parameter tolerance     =   0.000010000
  Maximum function  tolerance     =   0.000010000
  Maximum gradient  tolerance     =   0.001000000
  Maximum gradient  component     =   0.010000000

  Symmetry constrained optimisation

  Symmetry used for second derivatives

  Cell parameters to be optimised using strains

  Newton-Raphson optimiser to be used

  BFGS hessian update to be used

  Start of bulk optimisation :

  Cycle:      0 Energy:      -196.319861  Gnorm:     20.697435  CPU:    0.025
  ** Hessian calculated **
  Cycle:      1 Energy:      -201.664543  Gnorm:     10.334429  CPU:    0.059
  Cycle:      2 Energy:      -202.840309  Gnorm:      0.961076  CPU:    0.092
  Cycle:      3 Energy:      -202.847698  Gnorm:      0.533315  CPU:    0.133
  Cycle:      4 Energy:      -202.850543  Gnorm:      0.003756  CPU:    0.166


  **** Optimisation achieved ****


  Final energy =    -202.85054335 eV
  Final Gnorm  =       0.00054806

  Components of energy : 

--------------------------------------------------------------------------------
  Interatomic potentials     =          27.31141232 eV
  Monopole - monopole (real) =        -102.58567122 eV
  Monopole - monopole (recip)=        -127.57628446 eV
  Monopole - monopole (total)=        -230.16195567 eV
--------------------------------------------------------------------------------
  Total lattice energy       =        -202.85054335 eV
--------------------------------------------------------------------------------
  Total lattice energy       =          -19571.9766 kJ/(mole unit cells)
--------------------------------------------------------------------------------

  Final asymmetric unit coordinates :

--------------------------------------------------------------------------------
   No.  Atomic        x           y           z         Radius
        Label       (Frac)      (Frac)      (Frac)       (Angs) 
--------------------------------------------------------------------------------
     1  K     c     0.042000    0.250000    0.490600    0.000000
     2  Ca    c     0.000000    0.000000    0.000000    0.000000
     3  F     c     0.471500    0.250000    0.581200    0.000000
     4  F     c     0.291600    0.040400    0.206800    0.000000
     5  F     s     0.471500    0.250000    0.581200    0.000000
     6  F     s     0.291600    0.040400    0.206800    0.000000
--------------------------------------------------------------------------------

  Final Cartesian lattice vectors (Angstroms) :

        5.617887    0.000000    0.000000
        0.000000    7.790155    0.000000
        0.000000    0.000000    5.509579


  Final cell parameters and derivatives :

--------------------------------------------------------------------------------
       a            5.617887 Angstrom     dE/de1(xx)    -0.001242 eV/strain
       b            7.790155 Angstrom     dE/de2(yy)     0.000006 eV/strain
       c            5.509579 Angstrom     dE/de3(zz)     0.001078 eV/strain
       alpha       90.000000 Degrees      dE/de4(yz)     0.000000 eV/strain
       beta        90.000000 Degrees      dE/de5(xz)     0.000000 eV/strain
       gamma       90.000000 Degrees      dE/de6(xy)     0.000000 eV/strain
--------------------------------------------------------------------------------

  Primitive cell volume =           241.122394 Angs**3

  Density of cell =      3.751386 g/cm**3

  Non-primitive cell volume =           241.122394 Angs**3


  Final internal derivatives :

--------------------------------------------------------------------------------
   No.  Atomic          a             b             c           Radius
        Label          (eV)          (eV)          (eV)        (eV/Angs)
--------------------------------------------------------------------------------
      1 K     c       0.000000      0.000000      0.000000      0.000000
      2 Ca    c       0.000000      0.000000      0.000000      0.000000
      3 F     c       0.000000      0.000000      0.000000      0.000000
      4 F     c       0.000000      0.000000      0.000000      0.000000
      5 F     s       0.000000      0.000000      0.000000      0.000000
      6 F     s       0.000000      0.000000      0.000000      0.000000
--------------------------------------------------------------------------------
  Maximum abs         0.000000      0.000000      0.000000      0.000000
--------------------------------------------------------------------------------


  Born effective charge tensors : 

-------------------------------------------------------------------------------
  Atom             x           y             z
-------------------------------------------------------------------------------
   1 K     x       1.4082      0.0000     -0.0431
           y       0.0000      1.4620      0.0000
           z      -0.0489      0.0000      1.3953
-------------------------------------------------------------------------------
   2 Ca    x       1.7030      0.0153     -0.0168
           y       0.0054      1.6635     -0.0067
           z       0.0019      0.0188      1.7027
-------------------------------------------------------------------------------
   3 F     x      -0.9944      0.0000      0.0195
           y       0.0000     -1.0957      0.0000
           z       0.0308      0.0000     -0.9683
-------------------------------------------------------------------------------
   4 F     x      -1.0584      0.0247     -0.0547
           y       0.0336     -1.0149     -0.0328
           z      -0.0526     -0.0343     -1.0649
-------------------------------------------------------------------------------




  Elastic Constant Matrix: (Units=GPa)

-------------------------------------------------------------------------------
  Indices      1         2         3         4         5         6    
-------------------------------------------------------------------------------
       1    168.1887   72.6541   71.2006    0.0000    0.0000    0.0000
       2     72.6541  176.9145   78.1797    0.0000    0.0000    0.0000
       3     71.2006   78.1797  182.5119    0.0000    0.0000    0.0000
       4      0.0000    0.0000    0.0000   60.1527    0.0000    0.0000
       5      0.0000    0.0000    0.0000    0.0000   46.9761    0.0000
       6      0.0000    0.0000    0.0000    0.0000    0.0000   67.9180
-------------------------------------------------------------------------------


  Elastic Compliance Matrix: (Units=1/GPa)

-------------------------------------------------------------------------------
  Indices      1         2         3         4         5         6    
-------------------------------------------------------------------------------
       1    0.007811 -0.002296 -0.002064  0.000000  0.000000  0.000000
       2   -0.002296  0.007647 -0.002380  0.000000  0.000000  0.000000
       3   -0.002064 -0.002380  0.007304  0.000000  0.000000  0.000000
       4    0.000000  0.000000  0.000000  0.016624  0.000000  0.000000
       5    0.000000  0.000000  0.000000  0.000000  0.021287  0.000000
       6    0.000000  0.000000  0.000000  0.000000  0.000000  0.014724
-------------------------------------------------------------------------------

  Mechanical properties :

-------------------------------------------------------------------------------
  Convention :                    Reuss         Voigt         Hill
-------------------------------------------------------------------------------
  Bulk  Modulus (GPa)     =     107.72850     107.96488     107.84669
  Shear Modulus (GPa)     =      54.36512      55.38141      54.87326
-------------------------------------------------------------------------------
  Velocity S-wave (km/s)  =       3.80684       3.84225       3.82459
  Velocity P-wave (km/s)  =       6.93107       6.96160       6.94635
-------------------------------------------------------------------------------
  Compressibility (1/GPa) =    0.00928259
-------------------------------------------------------------------------------
  Stress axis :                     x             y             z
-------------------------------------------------------------------------------
  Youngs Moduli (GPa)     =     128.02225     130.76998     136.91681
-------------------------------------------------------------------------------
  Poissons Ratio (x)      =                     0.30022       0.28257
  Poissons Ratio (y)      =       0.29392                     0.32586
  Poissons Ratio (z)      =       0.26422       0.31123
-------------------------------------------------------------------------------


  Piezoelectric Strain Matrix: (Units=C/m**2)

-------------------------------------------------------------------------------
  Indices      1         2         3         4         5         6    
-------------------------------------------------------------------------------
       x     0.00000   0.00000   0.00000   0.00000   0.00000   0.00000
       y     0.00000   0.00000   0.00000   0.00000   0.00000   0.00000
       z     0.00000   0.00000   0.00000   0.00000   0.00000   0.00000
-------------------------------------------------------------------------------


  Piezoelectric Stress Matrix: (Units=10**-11 C/N)

-------------------------------------------------------------------------------
  Indices      1         2         3         4         5         6    
-------------------------------------------------------------------------------
       x     0.00000   0.00000   0.00000   0.00000   0.00000   0.00000
       y     0.00000   0.00000   0.00000   0.00000   0.00000   0.00000
       z     0.00000   0.00000   0.00000   0.00000   0.00000   0.00000
-------------------------------------------------------------------------------


  Static dielectric constant tensor : 

-------------------------------------------------------------------------------
              x         y         z
-------------------------------------------------------------------------------
       x     4.84963   0.00000   0.00000
       y     0.00000   5.57832   0.00000
       z     0.00000   0.00000   4.60162
--------------------------------------------------------------------------------

  High frequency dielectric constant tensor : 

-------------------------------------------------------------------------------
              x         y         z
-------------------------------------------------------------------------------
       x     1.68335   0.00000   0.00000
       y     0.00000   1.68615   0.00000
       z     0.00000   0.00000   1.68057
-------------------------------------------------------------------------------

  Static refractive indices : 

-------------------------------------------------------------------------------
    1 =    2.14514      2 =    2.20219      3 =    2.36185
-------------------------------------------------------------------------------

  High frequency refractive indices : 

-------------------------------------------------------------------------------
    1 =    1.29637      2 =    1.29744      3 =    1.29852
-------------------------------------------------------------------------------


  Time to end of optimisation =       0.2955 seconds


  Peak dynamic memory used =       0.83 MB 


  Timing analysis for GULP :

--------------------------------------------------------------------------------
  Task / Subroutine                                          Time (Seconds)
--------------------------------------------------------------------------------
  Calculation of reciprocal space energy and derivatives          0.0026
  Calculation of reciprocal space energy using symmetry           0.0051
  Calculation of real space energy and derivatives                0.0922
  Calculation of real space energy using symmetry                 0.1909
  Symmetry generation of equivalent positions                     0.0004
--------------------------------------------------------------------------------
  Total CPU time                                                  0.2955
--------------------------------------------------------------------------------


  CIF file written as perov.cif                                               


  Job Finished at 09:45.28  6th April      2017                               

