********************************************************************************
*                       GENERAL UTILITY LATTICE PROGRAM                        *
*                                 Julian Gale                                  *
*                      Nanochemistry Research Institute                        *
*                           Department of Chemistry                            *
*                    Curtin University, Western Australia                      *
********************************************************************************
* Version = 4.3.2 * Last modified =  3rd March 2015                            *
********************************************************************************
*  optimise     - perform optimisation run                                     *
*  cell_only    - only optimise unit cell                                      *
*  property     - calculate properties for final geometry                      *
********************************************************************************

  Job Started  at 09:45.05  6th April      2017                               

  Number of CPUs =     1


  Total number of configurations input =   1

********************************************************************************
*  Input for Configuration =   1                                               *
********************************************************************************

  Formula = K4Ca4F12                                                    

  Number of irreducible atoms/shells =       6


  Total number atoms/shells =      32

  Dimensionality = 3               :  Bulk   


  Symmetry :

  Crystal family                   :  Orthorhombic
  Crystal class  (Groth - 1921)    :  Orthorhombic Bipyramidal             

  Space group (centrosymmetric)    :  P N M A         

  Patterson group                  :  P m m m  

  Cartesian lattice vectors (Angstroms) :

        6.223500    0.000000    0.000000
        0.000000    8.710300    0.000000
        0.000000    0.000000    6.118000

  Cell parameters (Angstroms/Degrees):

  a =       6.2235    alpha =  90.0000
  b =       8.7103    beta  =  90.0000
  c =       6.1180    gamma =  90.0000

  Initial cell volume =         331.647921 Angs**3

  Temperature of configuration =  0.000     K 

  Pressure of configuration =         0.000 GPa 

  Fractional coordinates of asymmetric unit :

--------------------------------------------------------------------------------
   No.  Atomic       x           y          z         Charge      Occupancy
        Label      (Frac)      (Frac)     (Frac)        (e)         (Frac)  
--------------------------------------------------------------------------------
      1 K     c    0.042000    0.250000    0.490600     0.80000    1.000000    
      2 Ca    c    0.000000    0.000000    0.000000     2.00000    1.000000    
      3 F     c    0.471500    0.250000    0.581200     0.37800    1.000000    
      4 F     c    0.291600    0.040400    0.206800     0.37800    1.000000    
      5 F     s    0.471500    0.250000    0.581200    -1.31133    1.000000    
      6 F     s    0.291600    0.040400    0.206800    -1.31133    1.000000    
--------------------------------------------------------------------------------



********************************************************************************
*  General input information                                                   *
********************************************************************************

  Species output for all configurations : 

--------------------------------------------------------------------------------
  Species    Type    Atomic    Atomic    Charge       Radii (Angs)     Library
                     Number     Mass       (e)     Cova   Ionic  VDW   Symbol
--------------------------------------------------------------------------------
    K        Core       19      39.10   0.800000   1.330  0.000  2.800          
    Ca       Core       20      40.08   2.000000   0.990  0.000  2.750          
    F        Core        9      19.00   0.378000   0.710  0.000  1.300          
    F        Shell       9       0.00  -1.311333   0.710  0.000  1.300          
--------------------------------------------------------------------------------


  Lattice summation method               =    Ewald          (3-D)
                                         =    Parry          (2-D)
                                         =    Saunders et al (1-D)
  Accuracy factor for lattice sums       =   12.000


  Time limit = Infinity

  Maximum range for interatomic potentials =    100000.000000 Angstroms

  General interatomic potentials :

--------------------------------------------------------------------------------
Atom  Types   Potential         A         B         C         D     Cutoffs(Ang)
  1     2                                                            Min    Max 
--------------------------------------------------------------------------------
K    c K    c Buckingham    0.219E+04 0.192      0.00      0.00     0.000 40.000
Ca   c F    s Buckingham    0.148E+04 0.266      0.00      0.00     0.000 40.000
F    s F    s Buckingham     912.     0.271      13.8      0.00     0.000 40.000
K    c F    s Buckingham    0.352E+04 0.267      0.00      0.00     0.000 40.000
F    c F    s Spring (c-s)   22.0      0.00      0.00      0.00     0.000  0.800
--------------------------------------------------------------------------------

********************************************************************************
*  Output for configuration   1                                                *
********************************************************************************


  Components of energy : 

--------------------------------------------------------------------------------
  Interatomic potentials     =          10.64709953 eV
  Monopole - monopole (real) =         -65.78913841 eV
  Monopole - monopole (recip)=         -80.49681920 eV
  Monopole - monopole (total)=        -146.28595761 eV
--------------------------------------------------------------------------------
  Total lattice energy       =        -135.63885808 eV
--------------------------------------------------------------------------------
  Total lattice energy       =          -13087.0764 kJ/(mole unit cells)
--------------------------------------------------------------------------------


  Number of variables =        3

  Maximum number of calculations  =          1000
  Maximum Hessian update interval =            10
  Maximum step size               =   1.000000000
  Maximum parameter tolerance     =   0.000010000
  Maximum function  tolerance     =   0.000010000
  Maximum gradient  tolerance     =   0.001000000
  Maximum gradient  component     =   0.010000000

  Symmetry constrained optimisation

  Symmetry used for second derivatives

  Cell parameters to be optimised using strains

  Newton-Raphson optimiser to be used

  BFGS hessian update to be used

  Start of bulk optimisation :

  Cycle:      0 Energy:      -135.638858  Gnorm:      9.018315  CPU:    0.024
  ** Hessian calculated **
  Cycle:      1 Energy:      -136.968124  Gnorm:      1.789125  CPU:    0.053
  Cycle:      2 Energy:      -137.004295  Gnorm:      0.476861  CPU:    0.081
  Cycle:      3 Energy:      -137.007874  Gnorm:      0.107658  CPU:    0.116
  Cycle:      4 Energy:      -137.008075  Gnorm:      0.000888  CPU:    0.145


  **** Optimisation achieved ****


  Final energy =    -137.00807531 eV
  Final Gnorm  =       0.00002091

  Components of energy : 

--------------------------------------------------------------------------------
  Interatomic potentials     =          17.44670621 eV
  Monopole - monopole (real) =         -69.45988624 eV
  Monopole - monopole (recip)=         -84.99489528 eV
  Monopole - monopole (total)=        -154.45478152 eV
--------------------------------------------------------------------------------
  Total lattice energy       =        -137.00807531 eV
--------------------------------------------------------------------------------
  Total lattice energy       =          -13219.1849 kJ/(mole unit cells)
--------------------------------------------------------------------------------

  Final asymmetric unit coordinates :

--------------------------------------------------------------------------------
   No.  Atomic        x           y           z         Radius
        Label       (Frac)      (Frac)      (Frac)       (Angs) 
--------------------------------------------------------------------------------
     1  K     c     0.042000    0.250000    0.490600    0.000000
     2  Ca    c     0.000000    0.000000    0.000000    0.000000
     3  F     c     0.471500    0.250000    0.581200    0.000000
     4  F     c     0.291600    0.040400    0.206800    0.000000
     5  F     s     0.471500    0.250000    0.581200    0.000000
     6  F     s     0.291600    0.040400    0.206800    0.000000
--------------------------------------------------------------------------------

  Final Cartesian lattice vectors (Angstroms) :

        5.912858    0.000000    0.000000
        0.000000    8.204489    0.000000
        0.000000    0.000000    5.807400


  Final cell parameters and derivatives :

--------------------------------------------------------------------------------
       a            5.912858 Angstrom     dE/de1(xx)    -0.000025 eV/strain
       b            8.204489 Angstrom     dE/de2(yy)    -0.000053 eV/strain
       c            5.807400 Angstrom     dE/de3(zz)    -0.000021 eV/strain
       alpha       90.000000 Degrees      dE/de4(yz)     0.000000 eV/strain
       beta        90.000000 Degrees      dE/de5(xz)     0.000000 eV/strain
       gamma       90.000000 Degrees      dE/de6(xy)     0.000000 eV/strain
--------------------------------------------------------------------------------

  Primitive cell volume =           281.728482 Angs**3

  Density of cell =      3.210691 g/cm**3

  Non-primitive cell volume =           281.728482 Angs**3


  Final internal derivatives :

--------------------------------------------------------------------------------
   No.  Atomic          a             b             c           Radius
        Label          (eV)          (eV)          (eV)        (eV/Angs)
--------------------------------------------------------------------------------
      1 K     c       0.000000      0.000000      0.000000      0.000000
      2 Ca    c       0.000000      0.000000      0.000000      0.000000
      3 F     c       0.000000      0.000000      0.000000      0.000000
      4 F     c       0.000000      0.000000      0.000000      0.000000
      5 F     s       0.000000      0.000000      0.000000      0.000000
      6 F     s       0.000000      0.000000      0.000000      0.000000
--------------------------------------------------------------------------------
  Maximum abs         0.000000      0.000000      0.000000      0.000000
--------------------------------------------------------------------------------


  Born effective charge tensors : 

-------------------------------------------------------------------------------
  Atom             x           y             z
-------------------------------------------------------------------------------
   1 K     x       0.6508      0.0000     -0.0483
           y       0.0000      0.6936      0.0000
           z      -0.0457      0.0000      0.6411
-------------------------------------------------------------------------------
   2 Ca    x       1.8192      0.0105     -0.0311
           y      -0.0035      1.7833     -0.0202
           z       0.0106      0.0302      1.8206
-------------------------------------------------------------------------------
   3 F     x      -0.7360      0.0000      0.0263
           y       0.0000     -0.9775      0.0000
           z       0.0413      0.0000     -0.7132
-------------------------------------------------------------------------------
   4 F     x      -0.8670      0.0224     -0.1286
           y       0.0267     -0.7497     -0.0173
           z      -0.1266     -0.0165     -0.8743
-------------------------------------------------------------------------------




  Elastic Constant Matrix: (Units=GPa)

-------------------------------------------------------------------------------
  Indices      1         2         3         4         5         6    
-------------------------------------------------------------------------------
       1     99.7325   44.7757   47.2139    0.0000    0.0000    0.0000
       2     44.7757  104.7183   51.2322    0.0000    0.0000    0.0000
       3     47.2139   51.2322  103.1795    0.0000    0.0000    0.0000
       4      0.0000    0.0000    0.0000   32.8946    0.0000    0.0000
       5      0.0000    0.0000    0.0000    0.0000   25.0895    0.0000
       6      0.0000    0.0000    0.0000    0.0000    0.0000   38.8863
-------------------------------------------------------------------------------


  Elastic Compliance Matrix: (Units=1/GPa)

-------------------------------------------------------------------------------
  Indices      1         2         3         4         5         6    
-------------------------------------------------------------------------------
       1    0.013814 -0.003717 -0.004476  0.000000  0.000000  0.000000
       2   -0.003717  0.013614 -0.005059  0.000000  0.000000  0.000000
       3   -0.004476 -0.005059  0.014252  0.000000  0.000000  0.000000
       4    0.000000  0.000000  0.000000  0.030400  0.000000  0.000000
       5    0.000000  0.000000  0.000000  0.000000  0.039857  0.000000
       6    0.000000  0.000000  0.000000  0.000000  0.000000  0.025716
-------------------------------------------------------------------------------

  Mechanical properties :

-------------------------------------------------------------------------------
  Convention :                    Reuss         Voigt         Hill
-------------------------------------------------------------------------------
  Bulk  Modulus (GPa)     =      65.89020      66.00823      65.94921
  Shear Modulus (GPa)     =      29.54811      30.33464      29.94138
-------------------------------------------------------------------------------
  Velocity S-wave (km/s)  =       3.03365       3.07376       3.05377
  Velocity P-wave (km/s)  =       5.72650       5.75814       5.74235
-------------------------------------------------------------------------------
  Compressibility (1/GPa) =    0.01517676
-------------------------------------------------------------------------------
  Stress axis :                     x             y             z
-------------------------------------------------------------------------------
  Youngs Moduli (GPa)     =      72.38786      73.45508      70.16693
-------------------------------------------------------------------------------
  Poissons Ratio (x)      =                     0.27304       0.31404
  Poissons Ratio (y)      =       0.26908                     0.35496
  Poissons Ratio (z)      =       0.32398       0.37159
-------------------------------------------------------------------------------


  Piezoelectric Strain Matrix: (Units=C/m**2)

-------------------------------------------------------------------------------
  Indices      1         2         3         4         5         6    
-------------------------------------------------------------------------------
       x     0.00000   0.00000   0.00000   0.00000   0.00000   0.00000
       y     0.00000   0.00000   0.00000   0.00000   0.00000   0.00000
       z     0.00000   0.00000   0.00000   0.00000   0.00000   0.00000
-------------------------------------------------------------------------------


  Piezoelectric Stress Matrix: (Units=10**-11 C/N)

-------------------------------------------------------------------------------
  Indices      1         2         3         4         5         6    
-------------------------------------------------------------------------------
       x     0.00000   0.00000   0.00000   0.00000   0.00000   0.00000
       y     0.00000   0.00000   0.00000   0.00000   0.00000   0.00000
       z     0.00000   0.00000   0.00000   0.00000   0.00000   0.00000
-------------------------------------------------------------------------------


  Static dielectric constant tensor : 

-------------------------------------------------------------------------------
              x         y         z
-------------------------------------------------------------------------------
       x     3.84989   0.00000   0.00000
       y     0.00000   3.75442   0.00000
       z     0.00000   0.00000   3.65863
--------------------------------------------------------------------------------

  High frequency dielectric constant tensor : 

-------------------------------------------------------------------------------
              x         y         z
-------------------------------------------------------------------------------
       x     1.58589   0.00000   0.00000
       y     0.00000   1.58737   0.00000
       z     0.00000   0.00000   1.58388
-------------------------------------------------------------------------------

  Static refractive indices : 

-------------------------------------------------------------------------------
    1 =    1.91275      2 =    1.93763      3 =    1.96211
-------------------------------------------------------------------------------

  High frequency refractive indices : 

-------------------------------------------------------------------------------
    1 =    1.25852      2 =    1.25932      3 =    1.25991
-------------------------------------------------------------------------------


  Time to end of optimisation =       0.2599 seconds


  Peak dynamic memory used =       0.73 MB 


  Timing analysis for GULP :

--------------------------------------------------------------------------------
  Task / Subroutine                                          Time (Seconds)
--------------------------------------------------------------------------------
  Calculation of reciprocal space energy and derivatives          0.0027
  Calculation of reciprocal space energy using symmetry           0.0044
  Calculation of real space energy and derivatives                0.0819
  Calculation of real space energy using symmetry                 0.1665
  Symmetry generation of equivalent positions                     0.0004
--------------------------------------------------------------------------------
  Total CPU time                                                  0.2599
--------------------------------------------------------------------------------


  CIF file written as perov.cif                                               


  Job Finished at 09:45.06  6th April      2017                               

