********************************************************************************
*                       GENERAL UTILITY LATTICE PROGRAM                        *
*                                 Julian Gale                                  *
*                      Nanochemistry Research Institute                        *
*                           Department of Chemistry                            *
*                    Curtin University, Western Australia                      *
********************************************************************************
* Version = 4.3.2 * Last modified =  3rd March 2015                            *
********************************************************************************
*  optimise     - perform optimisation run                                     *
*  cell_only    - only optimise unit cell                                      *
*  property     - calculate properties for final geometry                      *
********************************************************************************

  Job Started  at 09:44.57  6th April      2017                               

  Number of CPUs =     1


  Total number of configurations input =   1

********************************************************************************
*  Input for Configuration =   1                                               *
********************************************************************************

  Formula = K4Ca4F12                                                    

  Number of irreducible atoms/shells =       6


  Total number atoms/shells =      32

  Dimensionality = 3               :  Bulk   


  Symmetry :

  Crystal family                   :  Orthorhombic
  Crystal class  (Groth - 1921)    :  Orthorhombic Bipyramidal             

  Space group (centrosymmetric)    :  P N M A         

  Patterson group                  :  P m m m  

  Cartesian lattice vectors (Angstroms) :

        6.223500    0.000000    0.000000
        0.000000    8.710300    0.000000
        0.000000    0.000000    6.118000

  Cell parameters (Angstroms/Degrees):

  a =       6.2235    alpha =  90.0000
  b =       8.7103    beta  =  90.0000
  c =       6.1180    gamma =  90.0000

  Initial cell volume =         331.647921 Angs**3

  Temperature of configuration =  0.000     K 

  Pressure of configuration =         0.000 GPa 

  Fractional coordinates of asymmetric unit :

--------------------------------------------------------------------------------
   No.  Atomic       x           y          z         Charge      Occupancy
        Label      (Frac)      (Frac)     (Frac)        (e)         (Frac)  
--------------------------------------------------------------------------------
      1 K     c    0.042000    0.250000    0.490600     0.50000    1.000000    
      2 Ca    c    0.000000    0.000000    0.000000     1.70000    1.000000    
      3 F     c    0.471500    0.250000    0.581200     0.37800    1.000000    
      4 F     c    0.291600    0.040400    0.206800     0.37800    1.000000    
      5 F     s    0.471500    0.250000    0.581200    -1.11133    1.000000    
      6 F     s    0.291600    0.040400    0.206800    -1.11133    1.000000    
--------------------------------------------------------------------------------



********************************************************************************
*  General input information                                                   *
********************************************************************************

  Species output for all configurations : 

--------------------------------------------------------------------------------
  Species    Type    Atomic    Atomic    Charge       Radii (Angs)     Library
                     Number     Mass       (e)     Cova   Ionic  VDW   Symbol
--------------------------------------------------------------------------------
    K        Core       19      39.10   0.500000   1.330  0.000  2.800          
    Ca       Core       20      40.08   1.700000   0.990  0.000  2.750          
    F        Core        9      19.00   0.378000   0.710  0.000  1.300          
    F        Shell       9       0.00  -1.111333   0.710  0.000  1.300          
--------------------------------------------------------------------------------


  Lattice summation method               =    Ewald          (3-D)
                                         =    Parry          (2-D)
                                         =    Saunders et al (1-D)
  Accuracy factor for lattice sums       =   12.000


  Time limit = Infinity

  Maximum range for interatomic potentials =    100000.000000 Angstroms

  General interatomic potentials :

--------------------------------------------------------------------------------
Atom  Types   Potential         A         B         C         D     Cutoffs(Ang)
  1     2                                                            Min    Max 
--------------------------------------------------------------------------------
K    c K    c Buckingham    0.219E+04 0.192      0.00      0.00     0.000 40.000
Ca   c F    s Buckingham    0.148E+04 0.266      0.00      0.00     0.000 40.000
F    s F    s Buckingham     912.     0.271      13.8      0.00     0.000 40.000
K    c F    s Buckingham    0.352E+04 0.267      0.00      0.00     0.000 40.000
F    c F    s Spring (c-s)   15.8      0.00      0.00      0.00     0.000  0.800
--------------------------------------------------------------------------------

********************************************************************************
*  Output for configuration   1                                                *
********************************************************************************


  Components of energy : 

--------------------------------------------------------------------------------
  Interatomic potentials     =          10.64709953 eV
  Monopole - monopole (real) =         -42.62467525 eV
  Monopole - monopole (recip)=         -52.71385971 eV
  Monopole - monopole (total)=         -95.33853496 eV
--------------------------------------------------------------------------------
  Total lattice energy       =         -84.69143543 eV
--------------------------------------------------------------------------------
  Total lattice energy       =           -8171.4289 kJ/(mole unit cells)
--------------------------------------------------------------------------------


  Number of variables =        3

  Maximum number of calculations  =          1000
  Maximum Hessian update interval =            10
  Maximum step size               =   1.000000000
  Maximum parameter tolerance     =   0.000010000
  Maximum function  tolerance     =   0.000010000
  Maximum gradient  tolerance     =   0.001000000
  Maximum gradient  component     =   0.010000000

  Symmetry constrained optimisation

  Symmetry used for second derivatives

  Cell parameters to be optimised using strains

  Newton-Raphson optimiser to be used

  BFGS hessian update to be used

  Start of bulk optimisation :

  Cycle:      0 Energy:       -84.691435  Gnorm:      0.818321  CPU:    0.026
  ** Hessian calculated **
  Cycle:      1 Energy:       -84.704955  Gnorm:      0.004793  CPU:    0.057


  **** Optimisation achieved ****


  Final energy =     -84.70495591 eV
  Final Gnorm  =       0.00010024

  Components of energy : 

--------------------------------------------------------------------------------
  Interatomic potentials     =          10.09282358 eV
  Monopole - monopole (real) =         -42.38110837 eV
  Monopole - monopole (recip)=         -52.41667112 eV
  Monopole - monopole (total)=         -94.79777949 eV
--------------------------------------------------------------------------------
  Total lattice energy       =         -84.70495591 eV
--------------------------------------------------------------------------------
  Total lattice energy       =           -8172.7334 kJ/(mole unit cells)
--------------------------------------------------------------------------------

  Final asymmetric unit coordinates :

--------------------------------------------------------------------------------
   No.  Atomic        x           y           z         Radius
        Label       (Frac)      (Frac)      (Frac)       (Angs) 
--------------------------------------------------------------------------------
     1  K     c     0.042000    0.250000    0.490600    0.000000
     2  Ca    c     0.000000    0.000000    0.000000    0.000000
     3  F     c     0.471500    0.250000    0.581200    0.000000
     4  F     c     0.291600    0.040400    0.206800    0.000000
     5  F     s     0.471500    0.250000    0.581200    0.000000
     6  F     s     0.291600    0.040400    0.206800    0.000000
--------------------------------------------------------------------------------

  Final Cartesian lattice vectors (Angstroms) :

        6.275506    0.000000    0.000000
        0.000000    8.714769    0.000000
        0.000000    0.000000    6.167842


  Final cell parameters and derivatives :

--------------------------------------------------------------------------------
       a            6.275506 Angstrom     dE/de1(xx)    -0.000219 eV/strain
       b            8.714769 Angstrom     dE/de2(yy)    -0.000029 eV/strain
       c            6.167842 Angstrom     dE/de3(zz)    -0.000204 eV/strain
       alpha       90.000000 Degrees      dE/de4(yz)     0.000000 eV/strain
       beta        90.000000 Degrees      dE/de5(xz)     0.000000 eV/strain
       gamma       90.000000 Degrees      dE/de6(xy)     0.000000 eV/strain
--------------------------------------------------------------------------------

  Primitive cell volume =           337.316700 Angs**3

  Density of cell =      2.681584 g/cm**3

  Non-primitive cell volume =           337.316700 Angs**3


  Final internal derivatives :

--------------------------------------------------------------------------------
   No.  Atomic          a             b             c           Radius
        Label          (eV)          (eV)          (eV)        (eV/Angs)
--------------------------------------------------------------------------------
      1 K     c       0.000000      0.000000      0.000000      0.000000
      2 Ca    c       0.000000      0.000000      0.000000      0.000000
      3 F     c       0.000000      0.000000      0.000000      0.000000
      4 F     c       0.000000      0.000000      0.000000      0.000000
      5 F     s       0.000000      0.000000      0.000000      0.000000
      6 F     s       0.000000      0.000000      0.000000      0.000000
--------------------------------------------------------------------------------
  Maximum abs         0.000000      0.000000      0.000000      0.000000
--------------------------------------------------------------------------------


  Born effective charge tensors : 

-------------------------------------------------------------------------------
  Atom             x           y             z
-------------------------------------------------------------------------------
   1 K     x       0.3847      0.0000     -0.0378
           y       0.0000      0.4153      0.0000
           z      -0.0344      0.0000      0.3772
-------------------------------------------------------------------------------
   2 Ca    x       1.5528      0.0070     -0.0215
           y      -0.0024      1.5263     -0.0125
           z       0.0066      0.0206      1.5541
-------------------------------------------------------------------------------
   3 F     x      -0.5773      0.0000      0.0224
           y       0.0000     -0.7676      0.0000
           z       0.0319      0.0000     -0.5586
-------------------------------------------------------------------------------
   4 F     x      -0.6801      0.0178     -0.1021
           y       0.0202     -0.5870     -0.0120
           z      -0.1007     -0.0113     -0.6864
-------------------------------------------------------------------------------




  Elastic Constant Matrix: (Units=GPa)

-------------------------------------------------------------------------------
  Indices      1         2         3         4         5         6    
-------------------------------------------------------------------------------
       1     53.4127   23.3897   29.9283    0.0000    0.0000    0.0000
       2     23.3897   59.9019   27.5826    0.0000    0.0000    0.0000
       3     29.9283   27.5826   52.7249    0.0000    0.0000    0.0000
       4      0.0000    0.0000    0.0000   14.8736    0.0000    0.0000
       5      0.0000    0.0000    0.0000    0.0000   15.3897    0.0000
       6      0.0000    0.0000    0.0000    0.0000    0.0000   18.4480
-------------------------------------------------------------------------------


  Elastic Compliance Matrix: (Units=1/GPa)

-------------------------------------------------------------------------------
  Indices      1         2         3         4         5         6    
-------------------------------------------------------------------------------
       1    0.028482 -0.004844 -0.013634  0.000000  0.000000  0.000000
       2   -0.004844  0.022815 -0.009186  0.000000  0.000000  0.000000
       3   -0.013634 -0.009186  0.031511  0.000000  0.000000  0.000000
       4    0.000000  0.000000  0.000000  0.067233  0.000000  0.000000
       5    0.000000  0.000000  0.000000  0.000000  0.064979  0.000000
       6    0.000000  0.000000  0.000000  0.000000  0.000000  0.054206
-------------------------------------------------------------------------------

  Mechanical properties :

-------------------------------------------------------------------------------
  Convention :                    Reuss         Voigt         Hill
-------------------------------------------------------------------------------
  Bulk  Modulus (GPa)     =      36.38796      36.42678      36.40737
  Shear Modulus (GPa)     =      14.98288      15.41817      15.20053
-------------------------------------------------------------------------------
  Velocity S-wave (km/s)  =       2.36375       2.39784       2.38086
  Velocity P-wave (km/s)  =       4.58469       4.60980       4.59726
-------------------------------------------------------------------------------
  Compressibility (1/GPa) =    0.02748162
-------------------------------------------------------------------------------
  Stress axis :                     x             y             z
-------------------------------------------------------------------------------
  Youngs Moduli (GPa)     =      35.10939      43.83052      31.73506
-------------------------------------------------------------------------------
  Poissons Ratio (x)      =                     0.21230       0.43266
  Poissons Ratio (y)      =       0.17006                     0.29152
  Poissons Ratio (z)      =       0.47867       0.40263
-------------------------------------------------------------------------------


  Piezoelectric Strain Matrix: (Units=C/m**2)

-------------------------------------------------------------------------------
  Indices      1         2         3         4         5         6    
-------------------------------------------------------------------------------
       x     0.00000   0.00000   0.00000   0.00000   0.00000   0.00000
       y     0.00000   0.00000   0.00000   0.00000   0.00000   0.00000
       z     0.00000   0.00000   0.00000   0.00000   0.00000   0.00000
-------------------------------------------------------------------------------


  Piezoelectric Stress Matrix: (Units=10**-11 C/N)

-------------------------------------------------------------------------------
  Indices      1         2         3         4         5         6    
-------------------------------------------------------------------------------
       x     0.00000   0.00000   0.00000   0.00000   0.00000   0.00000
       y     0.00000   0.00000   0.00000   0.00000   0.00000   0.00000
       z     0.00000   0.00000   0.00000   0.00000   0.00000   0.00000
-------------------------------------------------------------------------------


  Static dielectric constant tensor : 

-------------------------------------------------------------------------------
              x         y         z
-------------------------------------------------------------------------------
       x     3.32866   0.00000   0.00000
       y     0.00000   3.22064   0.00000
       z     0.00000   0.00000   3.16017
--------------------------------------------------------------------------------

  High frequency dielectric constant tensor : 

-------------------------------------------------------------------------------
              x         y         z
-------------------------------------------------------------------------------
       x     1.49158   0.00000   0.00000
       y     0.00000   1.49254   0.00000
       z     0.00000   0.00000   1.49003
-------------------------------------------------------------------------------

  Static refractive indices : 

-------------------------------------------------------------------------------
    1 =    1.77769      2 =    1.79461      3 =    1.82446
-------------------------------------------------------------------------------

  High frequency refractive indices : 

-------------------------------------------------------------------------------
    1 =    1.22067      2 =    1.22130      3 =    1.22169
-------------------------------------------------------------------------------


  Time to end of optimisation =       0.1593 seconds


  Peak dynamic memory used =       0.73 MB 


  Timing analysis for GULP :

--------------------------------------------------------------------------------
  Task / Subroutine                                          Time (Seconds)
--------------------------------------------------------------------------------
  Calculation of reciprocal space energy and derivatives          0.0025
  Calculation of reciprocal space energy using symmetry           0.0023
  Calculation of real space energy and derivatives                0.0717
  Calculation of real space energy using symmetry                 0.0783
  Symmetry generation of equivalent positions                     0.0003
--------------------------------------------------------------------------------
  Total CPU time                                                  0.1594
--------------------------------------------------------------------------------


  CIF file written as perov.cif                                               


  Job Finished at 09:44.57  6th April      2017                               

