********************************************************************************
*                       GENERAL UTILITY LATTICE PROGRAM                        *
*                                 Julian Gale                                  *
*                      Nanochemistry Research Institute                        *
*                           Department of Chemistry                            *
*                    Curtin University, Western Australia                      *
********************************************************************************
* Version = 4.3.2 * Last modified =  3rd March 2015                            *
********************************************************************************
*  optimise     - perform optimisation run                                     *
*  cell_only    - only optimise unit cell                                      *
*  property     - calculate properties for final geometry                      *
********************************************************************************

  Job Started  at 09:44.59  6th April      2017                               

  Number of CPUs =     1


  Total number of configurations input =   1

********************************************************************************
*  Input for Configuration =   1                                               *
********************************************************************************

  Formula = K4Ca4F12                                                    

  Number of irreducible atoms/shells =       6


  Total number atoms/shells =      32

  Dimensionality = 3               :  Bulk   


  Symmetry :

  Crystal family                   :  Orthorhombic
  Crystal class  (Groth - 1921)    :  Orthorhombic Bipyramidal             

  Space group (centrosymmetric)    :  P N M A         

  Patterson group                  :  P m m m  

  Cartesian lattice vectors (Angstroms) :

        6.223500    0.000000    0.000000
        0.000000    8.710300    0.000000
        0.000000    0.000000    6.118000

  Cell parameters (Angstroms/Degrees):

  a =       6.2235    alpha =  90.0000
  b =       8.7103    beta  =  90.0000
  c =       6.1180    gamma =  90.0000

  Initial cell volume =         331.647921 Angs**3

  Temperature of configuration =  0.000     K 

  Pressure of configuration =         0.000 GPa 

  Fractional coordinates of asymmetric unit :

--------------------------------------------------------------------------------
   No.  Atomic       x           y          z         Charge      Occupancy
        Label      (Frac)      (Frac)     (Frac)        (e)         (Frac)  
--------------------------------------------------------------------------------
      1 K     c    0.042000    0.250000    0.490600     0.50000    1.000000    
      2 Ca    c    0.000000    0.000000    0.000000     2.50000    1.000000    
      3 F     c    0.471500    0.250000    0.581200     0.37800    1.000000    
      4 F     c    0.291600    0.040400    0.206800     0.37800    1.000000    
      5 F     s    0.471500    0.250000    0.581200    -1.37800    1.000000    
      6 F     s    0.291600    0.040400    0.206800    -1.37800    1.000000    
--------------------------------------------------------------------------------



********************************************************************************
*  General input information                                                   *
********************************************************************************

  Species output for all configurations : 

--------------------------------------------------------------------------------
  Species    Type    Atomic    Atomic    Charge       Radii (Angs)     Library
                     Number     Mass       (e)     Cova   Ionic  VDW   Symbol
--------------------------------------------------------------------------------
    K        Core       19      39.10   0.500000   1.330  0.000  2.800          
    Ca       Core       20      40.08   2.500000   0.990  0.000  2.750          
    F        Core        9      19.00   0.378000   0.710  0.000  1.300          
    F        Shell       9       0.00  -1.378000   0.710  0.000  1.300          
--------------------------------------------------------------------------------


  Lattice summation method               =    Ewald          (3-D)
                                         =    Parry          (2-D)
                                         =    Saunders et al (1-D)
  Accuracy factor for lattice sums       =   12.000


  Time limit = Infinity

  Maximum range for interatomic potentials =    100000.000000 Angstroms

  General interatomic potentials :

--------------------------------------------------------------------------------
Atom  Types   Potential         A         B         C         D     Cutoffs(Ang)
  1     2                                                            Min    Max 
--------------------------------------------------------------------------------
K    c K    c Buckingham    0.219E+04 0.192      0.00      0.00     0.000 40.000
Ca   c F    s Buckingham    0.148E+04 0.266      0.00      0.00     0.000 40.000
F    s F    s Buckingham     912.     0.271      13.8      0.00     0.000 40.000
K    c F    s Buckingham    0.352E+04 0.267      0.00      0.00     0.000 40.000
F    c F    s Spring (c-s)   24.3      0.00      0.00      0.00     0.000  0.800
--------------------------------------------------------------------------------

********************************************************************************
*  Output for configuration   1                                                *
********************************************************************************


  Components of energy : 

--------------------------------------------------------------------------------
  Interatomic potentials     =          10.64709953 eV
  Monopole - monopole (real) =         -83.48526074 eV
  Monopole - monopole (recip)=        -105.24879473 eV
  Monopole - monopole (total)=        -188.73405547 eV
--------------------------------------------------------------------------------
  Total lattice energy       =        -178.08695594 eV
--------------------------------------------------------------------------------
  Total lattice energy       =          -17182.6689 kJ/(mole unit cells)
--------------------------------------------------------------------------------


  Number of variables =        3

  Maximum number of calculations  =          1000
  Maximum Hessian update interval =            10
  Maximum step size               =   1.000000000
  Maximum parameter tolerance     =   0.000010000
  Maximum function  tolerance     =   0.000010000
  Maximum gradient  tolerance     =   0.001000000
  Maximum gradient  component     =   0.010000000

  Symmetry constrained optimisation

  Symmetry used for second derivatives

  Cell parameters to be optimised using strains

  Newton-Raphson optimiser to be used

  BFGS hessian update to be used

  Start of bulk optimisation :

  Cycle:      0 Energy:      -178.086956  Gnorm:     17.187303  CPU:    0.025
  ** Hessian calculated **
  Cycle:      1 Energy:      -182.264552  Gnorm:      7.128070  CPU:    0.056
  Cycle:      2 Energy:      -182.707381  Gnorm:      0.560046  CPU:    0.096
  Cycle:      3 Energy:      -182.715039  Gnorm:      0.062203  CPU:    0.133
  Cycle:      4 Energy:      -182.715079  Gnorm:      0.000740  CPU:    0.164


  **** Optimisation achieved ****


  Final energy =    -182.71507950 eV
  Final Gnorm  =       0.00015578

  Components of energy : 

--------------------------------------------------------------------------------
  Interatomic potentials     =          24.23371663 eV
  Monopole - monopole (real) =         -91.53873629 eV
  Monopole - monopole (recip)=        -115.41005984 eV
  Monopole - monopole (total)=        -206.94879613 eV
--------------------------------------------------------------------------------
  Total lattice energy       =        -182.71507950 eV
--------------------------------------------------------------------------------
  Total lattice energy       =          -17629.2121 kJ/(mole unit cells)
--------------------------------------------------------------------------------

  Final asymmetric unit coordinates :

--------------------------------------------------------------------------------
   No.  Atomic        x           y           z         Radius
        Label       (Frac)      (Frac)      (Frac)       (Angs) 
--------------------------------------------------------------------------------
     1  K     c     0.042000    0.250000    0.490600    0.000000
     2  Ca    c     0.000000    0.000000    0.000000    0.000000
     3  F     c     0.471500    0.250000    0.581200    0.000000
     4  F     c     0.291600    0.040400    0.206800    0.000000
     5  F     s     0.471500    0.250000    0.581200    0.000000
     6  F     s     0.291600    0.040400    0.206800    0.000000
--------------------------------------------------------------------------------

  Final Cartesian lattice vectors (Angstroms) :

        5.693785    0.000000    0.000000
        0.000000    7.898331    0.000000
        0.000000    0.000000    5.593108


  Final cell parameters and derivatives :

--------------------------------------------------------------------------------
       a            5.693785 Angstrom     dE/de1(xx)     0.000308 eV/strain
       b            7.898331 Angstrom     dE/de2(yy)     0.000011 eV/strain
       c            5.593108 Angstrom     dE/de3(zz)    -0.000351 eV/strain
       alpha       90.000000 Degrees      dE/de4(yz)     0.000000 eV/strain
       beta        90.000000 Degrees      dE/de5(xz)     0.000000 eV/strain
       gamma       90.000000 Degrees      dE/de6(xy)     0.000000 eV/strain
--------------------------------------------------------------------------------

  Primitive cell volume =           251.529870 Angs**3

  Density of cell =      3.596166 g/cm**3

  Non-primitive cell volume =           251.529870 Angs**3


  Final internal derivatives :

--------------------------------------------------------------------------------
   No.  Atomic          a             b             c           Radius
        Label          (eV)          (eV)          (eV)        (eV/Angs)
--------------------------------------------------------------------------------
      1 K     c       0.000000      0.000000      0.000000      0.000000
      2 Ca    c       0.000000      0.000000      0.000000      0.000000
      3 F     c       0.000000      0.000000      0.000000      0.000000
      4 F     c       0.000000      0.000000      0.000000      0.000000
      5 F     s       0.000000      0.000000      0.000000      0.000000
      6 F     s       0.000000      0.000000      0.000000      0.000000
--------------------------------------------------------------------------------
  Maximum abs         0.000000      0.000000      0.000000      0.000000
--------------------------------------------------------------------------------


  Born effective charge tensors : 

-------------------------------------------------------------------------------
  Atom             x           y             z
-------------------------------------------------------------------------------
   1 K     x       0.2311      0.0000     -0.0873
           y       0.0000      0.2874      0.0000
           z      -0.0664      0.0000      0.2233
-------------------------------------------------------------------------------
   2 Ca    x       2.4158      0.0165     -0.0814
           y      -0.0205      2.3644     -0.0663
           z       0.0388      0.0778      2.4178
-------------------------------------------------------------------------------
   3 F     x      -0.7052      0.0000      0.0392
           y       0.0000     -1.2149      0.0000
           z       0.0680      0.0000     -0.6782
-------------------------------------------------------------------------------
   4 F     x      -0.9709      0.0302     -0.2687
           y       0.0340     -0.7184     -0.0098
           z      -0.2647     -0.0064     -0.9814
-------------------------------------------------------------------------------




  Elastic Constant Matrix: (Units=GPa)

-------------------------------------------------------------------------------
  Indices      1         2         3         4         5         6    
-------------------------------------------------------------------------------
       1    133.4950   64.2870   74.5984    0.0000    0.0000    0.0000
       2     64.2870  142.2335   80.6944    0.0000    0.0000    0.0000
       3     74.5984   80.6944  132.4030    0.0000    0.0000    0.0000
       4      0.0000    0.0000    0.0000   41.6416    0.0000    0.0000
       5      0.0000    0.0000    0.0000    0.0000   30.6889    0.0000
       6      0.0000    0.0000    0.0000    0.0000    0.0000   53.0736
-------------------------------------------------------------------------------


  Elastic Compliance Matrix: (Units=1/GPa)

-------------------------------------------------------------------------------
  Indices      1         2         3         4         5         6    
-------------------------------------------------------------------------------
       1    0.011408 -0.002308 -0.005021  0.000000  0.000000  0.000000
       2   -0.002308  0.011213 -0.005534  0.000000  0.000000  0.000000
       3   -0.005021 -0.005534  0.013754  0.000000  0.000000  0.000000
       4    0.000000  0.000000  0.000000  0.024014  0.000000  0.000000
       5    0.000000  0.000000  0.000000  0.000000  0.032585  0.000000
       6    0.000000  0.000000  0.000000  0.000000  0.000000  0.018842
-------------------------------------------------------------------------------

  Mechanical properties :

-------------------------------------------------------------------------------
  Convention :                    Reuss         Voigt         Hill
-------------------------------------------------------------------------------
  Bulk  Modulus (GPa)     =      93.89251      94.14347      94.01799
  Shear Modulus (GPa)     =      35.43777      37.65092      36.54435
-------------------------------------------------------------------------------
  Velocity S-wave (km/s)  =       3.13916       3.23570       3.18779
  Velocity P-wave (km/s)  =       6.26483       6.33549       6.30026
-------------------------------------------------------------------------------
  Compressibility (1/GPa) =    0.01065048
-------------------------------------------------------------------------------
  Stress axis :                     x             y             z
-------------------------------------------------------------------------------
  Youngs Moduli (GPa)     =      87.65761      89.18017      72.70398
-------------------------------------------------------------------------------
  Poissons Ratio (x)      =                     0.20579       0.36506
  Poissons Ratio (y)      =       0.20227                     0.40234
  Poissons Ratio (z)      =       0.44014       0.49352
-------------------------------------------------------------------------------


  Piezoelectric Strain Matrix: (Units=C/m**2)

-------------------------------------------------------------------------------
  Indices      1         2         3         4         5         6    
-------------------------------------------------------------------------------
       x     0.00000   0.00000   0.00000   0.00000   0.00000   0.00000
       y     0.00000   0.00000   0.00000   0.00000   0.00000   0.00000
       z     0.00000   0.00000   0.00000   0.00000   0.00000   0.00000
-------------------------------------------------------------------------------


  Piezoelectric Stress Matrix: (Units=10**-11 C/N)

-------------------------------------------------------------------------------
  Indices      1         2         3         4         5         6    
-------------------------------------------------------------------------------
       x     0.00000   0.00000   0.00000   0.00000   0.00000   0.00000
       y     0.00000   0.00000   0.00000   0.00000   0.00000   0.00000
       z     0.00000   0.00000   0.00000   0.00000   0.00000   0.00000
-------------------------------------------------------------------------------


  Static dielectric constant tensor : 

-------------------------------------------------------------------------------
              x         y         z
-------------------------------------------------------------------------------
       x     5.28022   0.00000   0.00000
       y     0.00000   4.48405   0.00000
       z     0.00000   0.00000   5.03752
--------------------------------------------------------------------------------

  High frequency dielectric constant tensor : 

-------------------------------------------------------------------------------
              x         y         z
-------------------------------------------------------------------------------
       x     1.65914   0.00000   0.00000
       y     0.00000   1.66041   0.00000
       z     0.00000   0.00000   1.65732
-------------------------------------------------------------------------------

  Static refractive indices : 

-------------------------------------------------------------------------------
    1 =    2.11756      2 =    2.24444      3 =    2.29787
-------------------------------------------------------------------------------

  High frequency refractive indices : 

-------------------------------------------------------------------------------
    1 =    1.28737      2 =    1.28808      3 =    1.28857
-------------------------------------------------------------------------------


  Time to end of optimisation =       0.2889 seconds


  Peak dynamic memory used =       0.79 MB 


  Timing analysis for GULP :

--------------------------------------------------------------------------------
  Task / Subroutine                                          Time (Seconds)
--------------------------------------------------------------------------------
  Calculation of reciprocal space energy and derivatives          0.0027
  Calculation of reciprocal space energy using symmetry           0.0046
  Calculation of real space energy and derivatives                0.0886
  Calculation of real space energy using symmetry                 0.1881
  Symmetry generation of equivalent positions                     0.0004
--------------------------------------------------------------------------------
  Total CPU time                                                  0.2889
--------------------------------------------------------------------------------


  CIF file written as perov.cif                                               


  Job Finished at 09:44.59  6th April      2017                               

