********************************************************************************
*                       GENERAL UTILITY LATTICE PROGRAM                        *
*                                 Julian Gale                                  *
*                      Nanochemistry Research Institute                        *
*                           Department of Chemistry                            *
*                    Curtin University, Western Australia                      *
********************************************************************************
* Version = 4.3.2 * Last modified =  3rd March 2015                            *
********************************************************************************
*  optimise     - perform optimisation run                                     *
*  cell_only    - only optimise unit cell                                      *
*  property     - calculate properties for final geometry                      *
********************************************************************************

  Job Started  at 09:45.07  6th April      2017                               

  Number of CPUs =     1


  Total number of configurations input =   1

********************************************************************************
*  Input for Configuration =   1                                               *
********************************************************************************

  Formula = K4Ca4F12                                                    

  Number of irreducible atoms/shells =       6


  Total number atoms/shells =      32

  Dimensionality = 3               :  Bulk   


  Symmetry :

  Crystal family                   :  Orthorhombic
  Crystal class  (Groth - 1921)    :  Orthorhombic Bipyramidal             

  Space group (centrosymmetric)    :  P N M A         

  Patterson group                  :  P m m m  

  Cartesian lattice vectors (Angstroms) :

        6.223500    0.000000    0.000000
        0.000000    8.710300    0.000000
        0.000000    0.000000    6.118000

  Cell parameters (Angstroms/Degrees):

  a =       6.2235    alpha =  90.0000
  b =       8.7103    beta  =  90.0000
  c =       6.1180    gamma =  90.0000

  Initial cell volume =         331.647921 Angs**3

  Temperature of configuration =  0.000     K 

  Pressure of configuration =         0.000 GPa 

  Fractional coordinates of asymmetric unit :

--------------------------------------------------------------------------------
   No.  Atomic       x           y          z         Charge      Occupancy
        Label      (Frac)      (Frac)     (Frac)        (e)         (Frac)  
--------------------------------------------------------------------------------
      1 K     c    0.042000    0.250000    0.490600     0.80000    1.000000    
      2 Ca    c    0.000000    0.000000    0.000000     2.40000    1.000000    
      3 F     c    0.471500    0.250000    0.581200     0.37800    1.000000    
      4 F     c    0.291600    0.040400    0.206800     0.37800    1.000000    
      5 F     s    0.471500    0.250000    0.581200    -1.44467    1.000000    
      6 F     s    0.291600    0.040400    0.206800    -1.44467    1.000000    
--------------------------------------------------------------------------------



********************************************************************************
*  General input information                                                   *
********************************************************************************

  Species output for all configurations : 

--------------------------------------------------------------------------------
  Species    Type    Atomic    Atomic    Charge       Radii (Angs)     Library
                     Number     Mass       (e)     Cova   Ionic  VDW   Symbol
--------------------------------------------------------------------------------
    K        Core       19      39.10   0.800000   1.330  0.000  2.800          
    Ca       Core       20      40.08   2.400000   0.990  0.000  2.750          
    F        Core        9      19.00   0.378000   0.710  0.000  1.300          
    F        Shell       9       0.00  -1.444667   0.710  0.000  1.300          
--------------------------------------------------------------------------------


  Lattice summation method               =    Ewald          (3-D)
                                         =    Parry          (2-D)
                                         =    Saunders et al (1-D)
  Accuracy factor for lattice sums       =   12.000


  Time limit = Infinity

  Maximum range for interatomic potentials =    100000.000000 Angstroms

  General interatomic potentials :

--------------------------------------------------------------------------------
Atom  Types   Potential         A         B         C         D     Cutoffs(Ang)
  1     2                                                            Min    Max 
--------------------------------------------------------------------------------
K    c K    c Buckingham    0.219E+04 0.192      0.00      0.00     0.000 40.000
Ca   c F    s Buckingham    0.148E+04 0.266      0.00      0.00     0.000 40.000
F    s F    s Buckingham     912.     0.271      13.8      0.00     0.000 40.000
K    c F    s Buckingham    0.352E+04 0.267      0.00      0.00     0.000 40.000
F    c F    s Spring (c-s)   26.8      0.00      0.00      0.00     0.000  0.800
--------------------------------------------------------------------------------

********************************************************************************
*  Output for configuration   1                                                *
********************************************************************************


  Components of energy : 

--------------------------------------------------------------------------------
  Interatomic potentials     =          10.64709953 eV
  Monopole - monopole (real) =         -88.48278072 eV
  Monopole - monopole (recip)=        -108.86277393 eV
  Monopole - monopole (total)=        -197.34555465 eV
--------------------------------------------------------------------------------
  Total lattice energy       =        -186.69845512 eV
--------------------------------------------------------------------------------
  Total lattice energy       =          -18013.5470 kJ/(mole unit cells)
--------------------------------------------------------------------------------


  Number of variables =        3

  Maximum number of calculations  =          1000
  Maximum Hessian update interval =            10
  Maximum step size               =   1.000000000
  Maximum parameter tolerance     =   0.000010000
  Maximum function  tolerance     =   0.000010000
  Maximum gradient  tolerance     =   0.001000000
  Maximum gradient  component     =   0.010000000

  Symmetry constrained optimisation

  Symmetry used for second derivatives

  Cell parameters to be optimised using strains

  Newton-Raphson optimiser to be used

  BFGS hessian update to be used

  Start of bulk optimisation :

  Cycle:      0 Energy:      -186.698455  Gnorm:     18.844866  CPU:    0.025
  ** Hessian calculated **
  Cycle:      1 Energy:      -191.400577  Gnorm:      8.374745  CPU:    0.056
  Cycle:      2 Energy:      -192.185026  Gnorm:      0.494378  CPU:    0.088
  Cycle:      3 Energy:      -192.189234  Gnorm:      0.198622  CPU:    0.128
  Cycle:      4 Energy:      -192.189604  Gnorm:      0.042779  CPU:    0.160
  Cycle:      5 Energy:      -192.189622  Gnorm:      0.000197  CPU:    0.192


  **** Optimisation achieved ****


  Final energy =    -192.18962226 eV
  Final Gnorm  =       0.00004491

  Components of energy : 

--------------------------------------------------------------------------------
  Interatomic potentials     =          25.67565413 eV
  Monopole - monopole (real) =         -97.67892407 eV
  Monopole - monopole (recip)=        -120.18635233 eV
  Monopole - monopole (total)=        -217.86527639 eV
--------------------------------------------------------------------------------
  Total lattice energy       =        -192.18962226 eV
--------------------------------------------------------------------------------
  Total lattice energy       =          -18543.3607 kJ/(mole unit cells)
--------------------------------------------------------------------------------

  Final asymmetric unit coordinates :

--------------------------------------------------------------------------------
   No.  Atomic        x           y           z         Radius
        Label       (Frac)      (Frac)      (Frac)       (Angs) 
--------------------------------------------------------------------------------
     1  K     c     0.042000    0.250000    0.490600    0.000000
     2  Ca    c     0.000000    0.000000    0.000000    0.000000
     3  F     c     0.471500    0.250000    0.581200    0.000000
     4  F     c     0.291600    0.040400    0.206800    0.000000
     5  F     s     0.471500    0.250000    0.581200    0.000000
     6  F     s     0.291600    0.040400    0.206800    0.000000
--------------------------------------------------------------------------------

  Final Cartesian lattice vectors (Angstroms) :

        5.656167    0.000000    0.000000
        0.000000    7.844727    0.000000
        0.000000    0.000000    5.554493


  Final cell parameters and derivatives :

--------------------------------------------------------------------------------
       a            5.656167 Angstrom     dE/de1(xx)     0.000098 eV/strain
       b            7.844727 Angstrom     dE/de2(yy)     0.000012 eV/strain
       c            5.554493 Angstrom     dE/de3(zz)    -0.000092 eV/strain
       alpha       90.000000 Degrees      dE/de4(yz)     0.000000 eV/strain
       beta        90.000000 Degrees      dE/de5(xz)     0.000000 eV/strain
       gamma       90.000000 Degrees      dE/de6(xy)     0.000000 eV/strain
--------------------------------------------------------------------------------

  Primitive cell volume =           246.458875 Angs**3

  Density of cell =      3.670159 g/cm**3

  Non-primitive cell volume =           246.458875 Angs**3


  Final internal derivatives :

--------------------------------------------------------------------------------
   No.  Atomic          a             b             c           Radius
        Label          (eV)          (eV)          (eV)        (eV/Angs)
--------------------------------------------------------------------------------
      1 K     c       0.000000      0.000000      0.000000      0.000000
      2 Ca    c       0.000000      0.000000      0.000000      0.000000
      3 F     c       0.000000      0.000000      0.000000      0.000000
      4 F     c       0.000000      0.000000      0.000000      0.000000
      5 F     s       0.000000      0.000000      0.000000      0.000000
      6 F     s       0.000000      0.000000      0.000000      0.000000
--------------------------------------------------------------------------------
  Maximum abs         0.000000      0.000000      0.000000      0.000000
--------------------------------------------------------------------------------


  Born effective charge tensors : 

-------------------------------------------------------------------------------
  Atom             x           y             z
-------------------------------------------------------------------------------
   1 K     x       0.5697      0.0000     -0.0710
           y       0.0000      0.6254      0.0000
           z      -0.0615      0.0000      0.5596
-------------------------------------------------------------------------------
   2 Ca    x       2.2633      0.0141     -0.0623
           y      -0.0136      2.2150     -0.0493
           z       0.0278      0.0602      2.2651
-------------------------------------------------------------------------------
   3 F     x      -0.7977      0.0000      0.0342
           y       0.0000     -1.2135      0.0000
           z       0.0608      0.0000     -0.7717
-------------------------------------------------------------------------------
   4 F     x      -1.0176      0.0281     -0.2187
           y       0.0330     -0.8135     -0.0159
           z      -0.2154     -0.0136     -1.0265
-------------------------------------------------------------------------------




  Elastic Constant Matrix: (Units=GPa)

-------------------------------------------------------------------------------
  Indices      1         2         3         4         5         6    
-------------------------------------------------------------------------------
       1    150.8322   70.6380   68.6465    0.0000    0.0000    0.0000
       2     70.6380  152.4732   82.7591    0.0000    0.0000    0.0000
       3     68.6465   82.7591  157.2327    0.0000    0.0000    0.0000
       4      0.0000    0.0000    0.0000   52.7587    0.0000    0.0000
       5      0.0000    0.0000    0.0000    0.0000   32.8782    0.0000
       6      0.0000    0.0000    0.0000    0.0000    0.0000   62.6259
-------------------------------------------------------------------------------


  Elastic Compliance Matrix: (Units=1/GPa)

-------------------------------------------------------------------------------
  Indices      1         2         3         4         5         6    
-------------------------------------------------------------------------------
       1    0.009097 -0.002882 -0.002455  0.000000  0.000000  0.000000
       2   -0.002882  0.010095 -0.004055  0.000000  0.000000  0.000000
       3   -0.002455 -0.004055  0.009566  0.000000  0.000000  0.000000
       4    0.000000  0.000000  0.000000  0.018954  0.000000  0.000000
       5    0.000000  0.000000  0.000000  0.000000  0.030415  0.000000
       6    0.000000  0.000000  0.000000  0.000000  0.000000  0.015968
-------------------------------------------------------------------------------

  Mechanical properties :

-------------------------------------------------------------------------------
  Convention :                    Reuss         Voigt         Hill
-------------------------------------------------------------------------------
  Bulk  Modulus (GPa)     =     100.25988     100.51393     100.38690
  Shear Modulus (GPa)     =      43.02813      45.55217      44.29015
-------------------------------------------------------------------------------
  Velocity S-wave (km/s)  =       3.42400       3.52300       3.47385
  Velocity P-wave (km/s)  =       6.55357       6.62838       6.59108
-------------------------------------------------------------------------------
  Compressibility (1/GPa) =    0.00997408
-------------------------------------------------------------------------------
  Stress axis :                     x             y             z
-------------------------------------------------------------------------------
  Youngs Moduli (GPa)     =     109.92937      99.06156     104.53652
-------------------------------------------------------------------------------
  Poissons Ratio (x)      =                     0.28550       0.25660
  Poissons Ratio (y)      =       0.31682                     0.42390
  Poissons Ratio (z)      =       0.26983       0.40170
-------------------------------------------------------------------------------


  Piezoelectric Strain Matrix: (Units=C/m**2)

-------------------------------------------------------------------------------
  Indices      1         2         3         4         5         6    
-------------------------------------------------------------------------------
       x     0.00000   0.00000   0.00000   0.00000   0.00000   0.00000
       y     0.00000   0.00000   0.00000   0.00000   0.00000   0.00000
       z     0.00000   0.00000   0.00000   0.00000   0.00000   0.00000
-------------------------------------------------------------------------------


  Piezoelectric Stress Matrix: (Units=10**-11 C/N)

-------------------------------------------------------------------------------
  Indices      1         2         3         4         5         6    
-------------------------------------------------------------------------------
       x     0.00000   0.00000   0.00000   0.00000   0.00000   0.00000
       y     0.00000   0.00000   0.00000   0.00000   0.00000   0.00000
       z     0.00000   0.00000   0.00000   0.00000   0.00000   0.00000
-------------------------------------------------------------------------------


  Static dielectric constant tensor : 

-------------------------------------------------------------------------------
              x         y         z
-------------------------------------------------------------------------------
       x     4.75563   0.00000   0.00000
       y     0.00000   4.31560   0.00000
       z     0.00000   0.00000   4.53689
--------------------------------------------------------------------------------

  High frequency dielectric constant tensor : 

-------------------------------------------------------------------------------
              x         y         z
-------------------------------------------------------------------------------
       x     1.67144   0.00000   0.00000
       y     0.00000   1.67315   0.00000
       z     0.00000   0.00000   1.66924
-------------------------------------------------------------------------------

  Static refractive indices : 

-------------------------------------------------------------------------------
    1 =    2.07740      2 =    2.13000      3 =    2.18074
-------------------------------------------------------------------------------

  High frequency refractive indices : 

-------------------------------------------------------------------------------
    1 =    1.29199      2 =    1.29284      3 =    1.29350
-------------------------------------------------------------------------------


  Time to end of optimisation =       0.3191 seconds


  Peak dynamic memory used =       0.81 MB 


  Timing analysis for GULP :

--------------------------------------------------------------------------------
  Task / Subroutine                                          Time (Seconds)
--------------------------------------------------------------------------------
  Calculation of reciprocal space energy and derivatives          0.0027
  Calculation of reciprocal space energy using symmetry           0.0051
  Calculation of real space energy and derivatives                0.0913
  Calculation of real space energy using symmetry                 0.2150
  Symmetry generation of equivalent positions                     0.0004
--------------------------------------------------------------------------------
  Total CPU time                                                  0.3192
--------------------------------------------------------------------------------


  CIF file written as perov.cif                                               


  Job Finished at 09:45.07  6th April      2017                               

