********************************************************************************
*                       GENERAL UTILITY LATTICE PROGRAM                        *
*                                 Julian Gale                                  *
*                      Nanochemistry Research Institute                        *
*                           Department of Chemistry                            *
*                    Curtin University, Western Australia                      *
********************************************************************************
* Version = 4.3.2 * Last modified =  3rd March 2015                            *
********************************************************************************
*  optimise     - perform optimisation run                                     *
*  cell_only    - only optimise unit cell                                      *
*  property     - calculate properties for final geometry                      *
********************************************************************************

  Job Started  at 09:45.14  6th April      2017                               

  Number of CPUs =     1


  Total number of configurations input =   1

********************************************************************************
*  Input for Configuration =   1                                               *
********************************************************************************

  Formula = K4Ca4F12                                                    

  Number of irreducible atoms/shells =       6


  Total number atoms/shells =      32

  Dimensionality = 3               :  Bulk   


  Symmetry :

  Crystal family                   :  Orthorhombic
  Crystal class  (Groth - 1921)    :  Orthorhombic Bipyramidal             

  Space group (centrosymmetric)    :  P N M A         

  Patterson group                  :  P m m m  

  Cartesian lattice vectors (Angstroms) :

        6.223500    0.000000    0.000000
        0.000000    8.710300    0.000000
        0.000000    0.000000    6.118000

  Cell parameters (Angstroms/Degrees):

  a =       6.2235    alpha =  90.0000
  b =       8.7103    beta  =  90.0000
  c =       6.1180    gamma =  90.0000

  Initial cell volume =         331.647921 Angs**3

  Temperature of configuration =  0.000     K 

  Pressure of configuration =         0.000 GPa 

  Fractional coordinates of asymmetric unit :

--------------------------------------------------------------------------------
   No.  Atomic       x           y          z         Charge      Occupancy
        Label      (Frac)      (Frac)     (Frac)        (e)         (Frac)  
--------------------------------------------------------------------------------
      1 K     c    0.042000    0.250000    0.490600     1.10000    1.000000    
      2 Ca    c    0.000000    0.000000    0.000000     1.90000    1.000000    
      3 F     c    0.471500    0.250000    0.581200     0.37800    1.000000    
      4 F     c    0.291600    0.040400    0.206800     0.37800    1.000000    
      5 F     s    0.471500    0.250000    0.581200    -1.37800    1.000000    
      6 F     s    0.291600    0.040400    0.206800    -1.37800    1.000000    
--------------------------------------------------------------------------------



********************************************************************************
*  General input information                                                   *
********************************************************************************

  Species output for all configurations : 

--------------------------------------------------------------------------------
  Species    Type    Atomic    Atomic    Charge       Radii (Angs)     Library
                     Number     Mass       (e)     Cova   Ionic  VDW   Symbol
--------------------------------------------------------------------------------
    K        Core       19      39.10   1.100000   1.330  0.000  2.800          
    Ca       Core       20      40.08   1.900000   0.990  0.000  2.750          
    F        Core        9      19.00   0.378000   0.710  0.000  1.300          
    F        Shell       9       0.00  -1.378000   0.710  0.000  1.300          
--------------------------------------------------------------------------------


  Lattice summation method               =    Ewald          (3-D)
                                         =    Parry          (2-D)
                                         =    Saunders et al (1-D)
  Accuracy factor for lattice sums       =   12.000


  Time limit = Infinity

  Maximum range for interatomic potentials =    100000.000000 Angstroms

  General interatomic potentials :

--------------------------------------------------------------------------------
Atom  Types   Potential         A         B         C         D     Cutoffs(Ang)
  1     2                                                            Min    Max 
--------------------------------------------------------------------------------
K    c K    c Buckingham    0.219E+04 0.192      0.00      0.00     0.000 40.000
Ca   c F    s Buckingham    0.148E+04 0.266      0.00      0.00     0.000 40.000
F    s F    s Buckingham     912.     0.271      13.8      0.00     0.000 40.000
K    c F    s Buckingham    0.352E+04 0.267      0.00      0.00     0.000 40.000
F    c F    s Spring (c-s)   24.3      0.00      0.00      0.00     0.000  0.800
--------------------------------------------------------------------------------

********************************************************************************
*  Output for configuration   1                                                *
********************************************************************************


  Components of energy : 

--------------------------------------------------------------------------------
  Interatomic potentials     =          10.64709953 eV
  Monopole - monopole (real) =         -70.89124489 eV
  Monopole - monopole (recip)=         -86.82667569 eV
  Monopole - monopole (total)=        -157.71792057 eV
--------------------------------------------------------------------------------
  Total lattice energy       =        -147.07082105 eV
--------------------------------------------------------------------------------
  Total lattice energy       =          -14190.0860 kJ/(mole unit cells)
--------------------------------------------------------------------------------


  Number of variables =        3

  Maximum number of calculations  =          1000
  Maximum Hessian update interval =            10
  Maximum step size               =   1.000000000
  Maximum parameter tolerance     =   0.000010000
  Maximum function  tolerance     =   0.000010000
  Maximum gradient  tolerance     =   0.001000000
  Maximum gradient  component     =   0.010000000

  Symmetry constrained optimisation

  Symmetry used for second derivatives

  Cell parameters to be optimised using strains

  Newton-Raphson optimiser to be used

  BFGS hessian update to be used

  Start of bulk optimisation :

  Cycle:      0 Energy:      -147.070821  Gnorm:     11.218500  CPU:    0.025
  ** Hessian calculated **
  Cycle:      1 Energy:      -149.062318  Gnorm:      2.707508  CPU:    0.055
  Cycle:      2 Energy:      -149.134231  Gnorm:      0.849064  CPU:    0.085
  Cycle:      3 Energy:      -149.144647  Gnorm:      0.254058  CPU:    0.115
  Cycle:      4 Energy:      -149.145631  Gnorm:      0.002537  CPU:    0.144


  **** Optimisation achieved ****


  Final energy =    -149.14563076 eV
  Final Gnorm  =       0.00009585

  Components of energy : 

--------------------------------------------------------------------------------
  Interatomic potentials     =          19.22002393 eV
  Monopole - monopole (real) =         -75.67394480 eV
  Monopole - monopole (recip)=         -92.69170989 eV
  Monopole - monopole (total)=        -168.36565469 eV
--------------------------------------------------------------------------------
  Total lattice energy       =        -149.14563076 eV
--------------------------------------------------------------------------------
  Total lattice energy       =          -14390.2735 kJ/(mole unit cells)
--------------------------------------------------------------------------------

  Final asymmetric unit coordinates :

--------------------------------------------------------------------------------
   No.  Atomic        x           y           z         Radius
        Label       (Frac)      (Frac)      (Frac)       (Angs) 
--------------------------------------------------------------------------------
     1  K     c     0.042000    0.250000    0.490600    0.000000
     2  Ca    c     0.000000    0.000000    0.000000    0.000000
     3  F     c     0.471500    0.250000    0.581200    0.000000
     4  F     c     0.291600    0.040400    0.206800    0.000000
     5  F     s     0.471500    0.250000    0.581200    0.000000
     6  F     s     0.291600    0.040400    0.206800    0.000000
--------------------------------------------------------------------------------

  Final Cartesian lattice vectors (Angstroms) :

        5.849807    0.000000    0.000000
        0.000000    8.115368    0.000000
        0.000000    0.000000    5.741995


  Final cell parameters and derivatives :

--------------------------------------------------------------------------------
       a            5.849807 Angstrom     dE/de1(xx)    -0.000100 eV/strain
       b            8.115368 Angstrom     dE/de2(yy)    -0.000259 eV/strain
       c            5.741995 Angstrom     dE/de3(zz)    -0.000073 eV/strain
       alpha       90.000000 Degrees      dE/de4(yz)     0.000000 eV/strain
       beta        90.000000 Degrees      dE/de5(xz)     0.000000 eV/strain
       gamma       90.000000 Degrees      dE/de6(xy)     0.000000 eV/strain
--------------------------------------------------------------------------------

  Primitive cell volume =           272.591654 Angs**3

  Density of cell =      3.318309 g/cm**3

  Non-primitive cell volume =           272.591654 Angs**3


  Final internal derivatives :

--------------------------------------------------------------------------------
   No.  Atomic          a             b             c           Radius
        Label          (eV)          (eV)          (eV)        (eV/Angs)
--------------------------------------------------------------------------------
      1 K     c       0.000000      0.000000      0.000000      0.000000
      2 Ca    c       0.000000      0.000000      0.000000      0.000000
      3 F     c       0.000000      0.000000      0.000000      0.000000
      4 F     c       0.000000      0.000000      0.000000      0.000000
      5 F     s       0.000000      0.000000      0.000000      0.000000
      6 F     s       0.000000      0.000000      0.000000      0.000000
--------------------------------------------------------------------------------
  Maximum abs         0.000000      0.000000      0.000000      0.000000
--------------------------------------------------------------------------------


  Born effective charge tensors : 

-------------------------------------------------------------------------------
  Atom             x           y             z
-------------------------------------------------------------------------------
   1 K     x       0.9913      0.0000     -0.0406
           y       0.0000      1.0354      0.0000
           z      -0.0428      0.0000      0.9806
-------------------------------------------------------------------------------
   2 Ca    x       1.6685      0.0116     -0.0198
           y       0.0017      1.6337     -0.0098
           z       0.0043      0.0204      1.6690
-------------------------------------------------------------------------------
   3 F     x      -0.8300      0.0000      0.0211
           y       0.0000     -0.9774      0.0000
           z       0.0328      0.0000     -0.8069
-------------------------------------------------------------------------------
   4 F     x      -0.9149      0.0219     -0.0795
           y       0.0277     -0.8459     -0.0237
           z      -0.0777     -0.0240     -0.9214
-------------------------------------------------------------------------------




  Elastic Constant Matrix: (Units=GPa)

-------------------------------------------------------------------------------
  Indices      1         2         3         4         5         6    
-------------------------------------------------------------------------------
       1    113.3144   49.5733   50.4357    0.0000    0.0000    0.0000
       2     49.5733  118.9323   54.6340    0.0000    0.0000    0.0000
       3     50.4357   54.6340  119.7088    0.0000    0.0000    0.0000
       4      0.0000    0.0000    0.0000   38.7258    0.0000    0.0000
       5      0.0000    0.0000    0.0000    0.0000   30.2817    0.0000
       6      0.0000    0.0000    0.0000    0.0000    0.0000   44.5583
-------------------------------------------------------------------------------


  Elastic Compliance Matrix: (Units=1/GPa)

-------------------------------------------------------------------------------
  Indices      1         2         3         4         5         6    
-------------------------------------------------------------------------------
       1    0.011826 -0.003341 -0.003458  0.000000  0.000000  0.000000
       2   -0.003341  0.011582 -0.003879  0.000000  0.000000  0.000000
       3   -0.003458 -0.003879  0.011581  0.000000  0.000000  0.000000
       4    0.000000  0.000000  0.000000  0.025823  0.000000  0.000000
       5    0.000000  0.000000  0.000000  0.000000  0.033023  0.000000
       6    0.000000  0.000000  0.000000  0.000000  0.000000  0.022443
-------------------------------------------------------------------------------

  Mechanical properties :

-------------------------------------------------------------------------------
  Convention :                    Reuss         Voigt         Hill
-------------------------------------------------------------------------------
  Bulk  Modulus (GPa)     =      73.34349      73.47127      73.40738
  Shear Modulus (GPa)     =      35.16782      35.86731      35.51757
-------------------------------------------------------------------------------
  Velocity S-wave (km/s)  =       3.25547       3.28769       3.27162
  Velocity P-wave (km/s)  =       6.01943       6.04591       6.03268
-------------------------------------------------------------------------------
  Compressibility (1/GPa) =    0.01363448
-------------------------------------------------------------------------------
  Stress axis :                     x             y             z
-------------------------------------------------------------------------------
  Youngs Moduli (GPa)     =      84.56296      86.33838      86.35202
-------------------------------------------------------------------------------
  Poissons Ratio (x)      =                     0.28844       0.29857
  Poissons Ratio (y)      =       0.28251                     0.33492
  Poissons Ratio (z)      =       0.29239       0.33487
-------------------------------------------------------------------------------


  Piezoelectric Strain Matrix: (Units=C/m**2)

-------------------------------------------------------------------------------
  Indices      1         2         3         4         5         6    
-------------------------------------------------------------------------------
       x     0.00000   0.00000   0.00000   0.00000   0.00000   0.00000
       y     0.00000   0.00000   0.00000   0.00000   0.00000   0.00000
       z     0.00000   0.00000   0.00000   0.00000   0.00000   0.00000
-------------------------------------------------------------------------------


  Piezoelectric Stress Matrix: (Units=10**-11 C/N)

-------------------------------------------------------------------------------
  Indices      1         2         3         4         5         6    
-------------------------------------------------------------------------------
       x     0.00000   0.00000   0.00000   0.00000   0.00000   0.00000
       y     0.00000   0.00000   0.00000   0.00000   0.00000   0.00000
       z     0.00000   0.00000   0.00000   0.00000   0.00000   0.00000
-------------------------------------------------------------------------------


  Static dielectric constant tensor : 

-------------------------------------------------------------------------------
              x         y         z
-------------------------------------------------------------------------------
       x     4.10017   0.00000   0.00000
       y     0.00000   4.33352   0.00000
       z     0.00000   0.00000   3.87024
--------------------------------------------------------------------------------

  High frequency dielectric constant tensor : 

-------------------------------------------------------------------------------
              x         y         z
-------------------------------------------------------------------------------
       x     1.60547   0.00000   0.00000
       y     0.00000   1.60735   0.00000
       z     0.00000   0.00000   1.60321
-------------------------------------------------------------------------------

  Static refractive indices : 

-------------------------------------------------------------------------------
    1 =    1.96729      2 =    2.02489      3 =    2.08171
-------------------------------------------------------------------------------

  High frequency refractive indices : 

-------------------------------------------------------------------------------
    1 =    1.26618      2 =    1.26707      3 =    1.26781
-------------------------------------------------------------------------------


  Time to end of optimisation =       0.2603 seconds


  Peak dynamic memory used =       0.74 MB 


  Timing analysis for GULP :

--------------------------------------------------------------------------------
  Task / Subroutine                                          Time (Seconds)
--------------------------------------------------------------------------------
  Calculation of reciprocal space energy and derivatives          0.0026
  Calculation of reciprocal space energy using symmetry           0.0042
  Calculation of real space energy and derivatives                0.0823
  Calculation of real space energy using symmetry                 0.1665
  Symmetry generation of equivalent positions                     0.0004
--------------------------------------------------------------------------------
  Total CPU time                                                  0.2604
--------------------------------------------------------------------------------


  CIF file written as perov.cif                                               


  Job Finished at 09:45.14  6th April      2017                               

