********************************************************************************
*                       GENERAL UTILITY LATTICE PROGRAM                        *
*                                 Julian Gale                                  *
*                      Nanochemistry Research Institute                        *
*                           Department of Chemistry                            *
*                    Curtin University, Western Australia                      *
********************************************************************************
* Version = 4.3.2 * Last modified =  3rd March 2015                            *
********************************************************************************
*  optimise     - perform optimisation run                                     *
*  cell_only    - only optimise unit cell                                      *
*  property     - calculate properties for final geometry                      *
********************************************************************************

  Job Started  at 09:44.59  6th April      2017                               

  Number of CPUs =     1


  Total number of configurations input =   1

********************************************************************************
*  Input for Configuration =   1                                               *
********************************************************************************

  Formula = K4Ca4F12                                                    

  Number of irreducible atoms/shells =       6


  Total number atoms/shells =      32

  Dimensionality = 3               :  Bulk   


  Symmetry :

  Crystal family                   :  Orthorhombic
  Crystal class  (Groth - 1921)    :  Orthorhombic Bipyramidal             

  Space group (centrosymmetric)    :  P N M A         

  Patterson group                  :  P m m m  

  Cartesian lattice vectors (Angstroms) :

        6.223500    0.000000    0.000000
        0.000000    8.710300    0.000000
        0.000000    0.000000    6.118000

  Cell parameters (Angstroms/Degrees):

  a =       6.2235    alpha =  90.0000
  b =       8.7103    beta  =  90.0000
  c =       6.1180    gamma =  90.0000

  Initial cell volume =         331.647921 Angs**3

  Temperature of configuration =  0.000     K 

  Pressure of configuration =         0.000 GPa 

  Fractional coordinates of asymmetric unit :

--------------------------------------------------------------------------------
   No.  Atomic       x           y          z         Charge      Occupancy
        Label      (Frac)      (Frac)     (Frac)        (e)         (Frac)  
--------------------------------------------------------------------------------
      1 K     c    0.042000    0.250000    0.490600     0.60000    1.000000    
      2 Ca    c    0.000000    0.000000    0.000000     1.80000    1.000000    
      3 F     c    0.471500    0.250000    0.581200     0.37800    1.000000    
      4 F     c    0.291600    0.040400    0.206800     0.37800    1.000000    
      5 F     s    0.471500    0.250000    0.581200    -1.17800    1.000000    
      6 F     s    0.291600    0.040400    0.206800    -1.17800    1.000000    
--------------------------------------------------------------------------------



********************************************************************************
*  General input information                                                   *
********************************************************************************

  Species output for all configurations : 

--------------------------------------------------------------------------------
  Species    Type    Atomic    Atomic    Charge       Radii (Angs)     Library
                     Number     Mass       (e)     Cova   Ionic  VDW   Symbol
--------------------------------------------------------------------------------
    K        Core       19      39.10   0.600000   1.330  0.000  2.800          
    Ca       Core       20      40.08   1.800000   0.990  0.000  2.750          
    F        Core        9      19.00   0.378000   0.710  0.000  1.300          
    F        Shell       9       0.00  -1.178000   0.710  0.000  1.300          
--------------------------------------------------------------------------------


  Lattice summation method               =    Ewald          (3-D)
                                         =    Parry          (2-D)
                                         =    Saunders et al (1-D)
  Accuracy factor for lattice sums       =   12.000


  Time limit = Infinity

  Maximum range for interatomic potentials =    100000.000000 Angstroms

  General interatomic potentials :

--------------------------------------------------------------------------------
Atom  Types   Potential         A         B         C         D     Cutoffs(Ang)
  1     2                                                            Min    Max 
--------------------------------------------------------------------------------
K    c K    c Buckingham    0.219E+04 0.192      0.00      0.00     0.000 40.000
Ca   c F    s Buckingham    0.148E+04 0.266      0.00      0.00     0.000 40.000
F    s F    s Buckingham     912.     0.271      13.8      0.00     0.000 40.000
K    c F    s Buckingham    0.352E+04 0.267      0.00      0.00     0.000 40.000
F    c F    s Spring (c-s)   17.8      0.00      0.00      0.00     0.000  0.800
--------------------------------------------------------------------------------

********************************************************************************
*  Output for configuration   1                                                *
********************************************************************************


  Components of energy : 

--------------------------------------------------------------------------------
  Interatomic potentials     =          10.64709953 eV
  Monopole - monopole (real) =         -49.77156415 eV
  Monopole - monopole (recip)=         -61.23531033 eV
  Monopole - monopole (total)=        -111.00687449 eV
--------------------------------------------------------------------------------
  Total lattice energy       =        -100.35977496 eV
--------------------------------------------------------------------------------
  Total lattice energy       =           -9683.1841 kJ/(mole unit cells)
--------------------------------------------------------------------------------


  Number of variables =        3

  Maximum number of calculations  =          1000
  Maximum Hessian update interval =            10
  Maximum step size               =   1.000000000
  Maximum parameter tolerance     =   0.000010000
  Maximum function  tolerance     =   0.000010000
  Maximum gradient  tolerance     =   0.001000000
  Maximum gradient  component     =   0.010000000

  Symmetry constrained optimisation

  Symmetry used for second derivatives

  Cell parameters to be optimised using strains

  Newton-Raphson optimiser to be used

  BFGS hessian update to be used

  Start of bulk optimisation :

  Cycle:      0 Energy:      -100.359775  Gnorm:      2.235200  CPU:    0.024
  ** Hessian calculated **
  Cycle:      1 Energy:      -100.451493  Gnorm:      0.029406  CPU:    0.056
  Cycle:      2 Energy:      -100.451523  Gnorm:      0.004993  CPU:    0.082


  **** Optimisation achieved ****


  Final energy =    -100.45152376 eV
  Final Gnorm  =       0.00011360

  Components of energy : 

--------------------------------------------------------------------------------
  Interatomic potentials     =          12.25233219 eV
  Monopole - monopole (real) =         -50.53026146 eV
  Monopole - monopole (recip)=         -62.17359450 eV
  Monopole - monopole (total)=        -112.70385595 eV
--------------------------------------------------------------------------------
  Total lattice energy       =        -100.45152376 eV
--------------------------------------------------------------------------------
  Total lattice energy       =           -9692.0365 kJ/(mole unit cells)
--------------------------------------------------------------------------------

  Final asymmetric unit coordinates :

--------------------------------------------------------------------------------
   No.  Atomic        x           y           z         Radius
        Label       (Frac)      (Frac)      (Frac)       (Angs) 
--------------------------------------------------------------------------------
     1  K     c     0.042000    0.250000    0.490600    0.000000
     2  Ca    c     0.000000    0.000000    0.000000    0.000000
     3  F     c     0.471500    0.250000    0.581200    0.000000
     4  F     c     0.291600    0.040400    0.206800    0.000000
     5  F     s     0.471500    0.250000    0.581200    0.000000
     6  F     s     0.291600    0.040400    0.206800    0.000000
--------------------------------------------------------------------------------

  Final Cartesian lattice vectors (Angstroms) :

        6.147066    0.000000    0.000000
        0.000000    8.533877    0.000000
        0.000000    0.000000    6.040124


  Final cell parameters and derivatives :

--------------------------------------------------------------------------------
       a            6.147066 Angstrom     dE/de1(xx)     0.000213 eV/strain
       b            8.533877 Angstrom     dE/de2(yy)     0.000157 eV/strain
       c            6.040124 Angstrom     dE/de3(zz)     0.000214 eV/strain
       alpha       90.000000 Degrees      dE/de4(yz)     0.000000 eV/strain
       beta        90.000000 Degrees      dE/de5(xz)     0.000000 eV/strain
       gamma       90.000000 Degrees      dE/de6(xy)     0.000000 eV/strain
--------------------------------------------------------------------------------

  Primitive cell volume =           316.854635 Angs**3

  Density of cell =      2.854758 g/cm**3

  Non-primitive cell volume =           316.854635 Angs**3


  Final internal derivatives :

--------------------------------------------------------------------------------
   No.  Atomic          a             b             c           Radius
        Label          (eV)          (eV)          (eV)        (eV/Angs)
--------------------------------------------------------------------------------
      1 K     c       0.000000      0.000000      0.000000      0.000000
      2 Ca    c       0.000000      0.000000      0.000000      0.000000
      3 F     c       0.000000      0.000000      0.000000      0.000000
      4 F     c       0.000000      0.000000      0.000000      0.000000
      5 F     s       0.000000      0.000000      0.000000      0.000000
      6 F     s       0.000000      0.000000      0.000000      0.000000
--------------------------------------------------------------------------------
  Maximum abs         0.000000      0.000000      0.000000      0.000000
--------------------------------------------------------------------------------


  Born effective charge tensors : 

-------------------------------------------------------------------------------
  Atom             x           y             z
-------------------------------------------------------------------------------
   1 K     x       0.4740      0.0000     -0.0412
           y       0.0000      0.5085      0.0000
           z      -0.0380      0.0000      0.4658
-------------------------------------------------------------------------------
   2 Ca    x       1.6402      0.0082     -0.0243
           y      -0.0026      1.6106     -0.0146
           z       0.0077      0.0234      1.6415
-------------------------------------------------------------------------------
   3 F     x      -0.6307      0.0000      0.0237
           y       0.0000     -0.8358      0.0000
           z       0.0348      0.0000     -0.6105
-------------------------------------------------------------------------------
   4 F     x      -0.7417      0.0193     -0.1099
           y       0.0223     -0.6416     -0.0138
           z      -0.1083     -0.0131     -0.7484
-------------------------------------------------------------------------------




  Elastic Constant Matrix: (Units=GPa)

-------------------------------------------------------------------------------
  Indices      1         2         3         4         5         6    
-------------------------------------------------------------------------------
       1     66.6534   29.4693   35.1377    0.0000    0.0000    0.0000
       2     29.4693   72.9333   34.3416    0.0000    0.0000    0.0000
       3     35.1377   34.3416   67.0039    0.0000    0.0000    0.0000
       4      0.0000    0.0000    0.0000   19.8529    0.0000    0.0000
       5      0.0000    0.0000    0.0000    0.0000   18.2807    0.0000
       6      0.0000    0.0000    0.0000    0.0000    0.0000   24.1392
-------------------------------------------------------------------------------


  Elastic Compliance Matrix: (Units=1/GPa)

-------------------------------------------------------------------------------
  Indices      1         2         3         4         5         6    
-------------------------------------------------------------------------------
       1    0.021809 -0.004517 -0.009122  0.000000  0.000000  0.000000
       2   -0.004517  0.019008 -0.007374  0.000000  0.000000  0.000000
       3   -0.009122 -0.007374  0.023487  0.000000  0.000000  0.000000
       4    0.000000  0.000000  0.000000  0.050371  0.000000  0.000000
       5    0.000000  0.000000  0.000000  0.000000  0.054702  0.000000
       6    0.000000  0.000000  0.000000  0.000000  0.000000  0.041426
-------------------------------------------------------------------------------

  Mechanical properties :

-------------------------------------------------------------------------------
  Convention :                    Reuss         Voigt         Hill
-------------------------------------------------------------------------------
  Bulk  Modulus (GPa)     =      44.88377      44.94308      44.91342
  Shear Modulus (GPa)     =      19.21197      19.63070      19.42133
-------------------------------------------------------------------------------
  Velocity S-wave (km/s)  =       2.59419       2.62231       2.60828
  Velocity P-wave (km/s)  =       4.96946       4.99118       4.98033
-------------------------------------------------------------------------------
  Compressibility (1/GPa) =    0.02227977
-------------------------------------------------------------------------------
  Stress axis :                     x             y             z
-------------------------------------------------------------------------------
  Youngs Moduli (GPa)     =      45.85315      52.60890      42.57639
-------------------------------------------------------------------------------
  Poissons Ratio (x)      =                     0.23763       0.38837
  Poissons Ratio (y)      =       0.20712                     0.31394
  Poissons Ratio (z)      =       0.41826       0.38791
-------------------------------------------------------------------------------


  Piezoelectric Strain Matrix: (Units=C/m**2)

-------------------------------------------------------------------------------
  Indices      1         2         3         4         5         6    
-------------------------------------------------------------------------------
       x     0.00000   0.00000   0.00000   0.00000   0.00000   0.00000
       y     0.00000   0.00000   0.00000   0.00000   0.00000   0.00000
       z     0.00000   0.00000   0.00000   0.00000   0.00000   0.00000
-------------------------------------------------------------------------------


  Piezoelectric Stress Matrix: (Units=10**-11 C/N)

-------------------------------------------------------------------------------
  Indices      1         2         3         4         5         6    
-------------------------------------------------------------------------------
       x     0.00000   0.00000   0.00000   0.00000   0.00000   0.00000
       y     0.00000   0.00000   0.00000   0.00000   0.00000   0.00000
       z     0.00000   0.00000   0.00000   0.00000   0.00000   0.00000
-------------------------------------------------------------------------------


  Static dielectric constant tensor : 

-------------------------------------------------------------------------------
              x         y         z
-------------------------------------------------------------------------------
       x     3.48471   0.00000   0.00000
       y     0.00000   3.38348   0.00000
       z     0.00000   0.00000   3.30811
--------------------------------------------------------------------------------

  High frequency dielectric constant tensor : 

-------------------------------------------------------------------------------
              x         y         z
-------------------------------------------------------------------------------
       x     1.52225   0.00000   0.00000
       y     0.00000   1.52336   0.00000
       z     0.00000   0.00000   1.52055
-------------------------------------------------------------------------------

  Static refractive indices : 

-------------------------------------------------------------------------------
    1 =    1.81882      2 =    1.83942      3 =    1.86674
-------------------------------------------------------------------------------

  High frequency refractive indices : 

-------------------------------------------------------------------------------
    1 =    1.23311      2 =    1.23380      3 =    1.23425
-------------------------------------------------------------------------------


  Time to end of optimisation =       0.1862 seconds


  Peak dynamic memory used =       0.73 MB 


  Timing analysis for GULP :

--------------------------------------------------------------------------------
  Task / Subroutine                                          Time (Seconds)
--------------------------------------------------------------------------------
  Calculation of reciprocal space energy and derivatives          0.0026
  Calculation of reciprocal space energy using symmetry           0.0030
  Calculation of real space energy and derivatives                0.0743
  Calculation of real space energy using symmetry                 0.1020
  Symmetry generation of equivalent positions                     0.0004
--------------------------------------------------------------------------------
  Total CPU time                                                  0.1862
--------------------------------------------------------------------------------


  CIF file written as perov.cif                                               


  Job Finished at 09:45.00  6th April      2017                               

