********************************************************************************
*                       GENERAL UTILITY LATTICE PROGRAM                        *
*                                 Julian Gale                                  *
*                      Nanochemistry Research Institute                        *
*                           Department of Chemistry                            *
*                    Curtin University, Western Australia                      *
********************************************************************************
* Version = 4.3.2 * Last modified =  3rd March 2015                            *
********************************************************************************
*  optimise     - perform optimisation run                                     *
*  conp         - constant pressure calculation                                *
*  property     - calculate properties for final geometry                      *
********************************************************************************

  Job Started  at 14:36.51  7th December   2016                               

  Number of CPUs =     1


  Total number of configurations input =   1

********************************************************************************
*  Input for Configuration =   1                                               *
********************************************************************************

  Formula = KZnF3                                                       

  Number of irreducible atoms/shells =       8


  Total number atoms/shells =       8

  Dimensionality = 3               :  Bulk   



  Cartesian lattice vectors (Angstroms) :

        4.200000    0.000000    0.000000
        0.000000    4.200000    0.000000
        0.000000    0.000000    4.200000

  Cell parameters (Angstroms/Degrees):

  a =       4.2000    alpha =  90.0000
  b =       4.2000    beta  =  90.0000
  c =       4.2000    gamma =  90.0000

  Initial cell volume =          74.088000 Angs**3

  Temperature of configuration =  0.000     K 

  Pressure of configuration =         0.000 GPa 

  Fractional coordinates of asymmetric unit :

--------------------------------------------------------------------------------
   No.  Atomic       x           y          z         Charge      Occupancy
        Label      (Frac)      (Frac)     (Frac)        (e)         (Frac)  
--------------------------------------------------------------------------------
      1 K     c    0.000000    0.000000    0.000000     1.40000    1.000000    
      2 Zn    c    0.500000 *  0.500000 *  0.500000 *   2.40000    1.000000    
      3 F     c    0.500000 *  0.500000 *  0.000000 *   0.37800    1.000000    
      4 F     c    0.000000 *  0.500000 *  0.500000 *   0.37800    1.000000    
      5 F     c    0.500000 *  0.000000 *  0.500000 *   0.37800    1.000000    
      6 F     s    0.500000 *  0.500000 *  0.000000 *  -1.64467    1.000000    
      7 F     s    0.000000 *  0.500000 *  0.500000 *  -1.64467    1.000000    
      8 F     s    0.500000 *  0.000000 *  0.500000 *  -1.64467    1.000000    
--------------------------------------------------------------------------------



********************************************************************************
*  General input information                                                   *
********************************************************************************

  Species output for all configurations : 

--------------------------------------------------------------------------------
  Species    Type    Atomic    Atomic    Charge       Radii (Angs)     Library
                     Number     Mass       (e)     Cova   Ionic  VDW   Symbol
--------------------------------------------------------------------------------
    K        Core       19      39.10   1.400000   1.330  0.000  2.800          
    Zn       Core       30      65.39   2.400000   1.450  0.000  2.160          
    F        Core        9      19.00   0.378000   0.710  0.000  1.300          
    F        Shell       9       0.00  -1.644667   0.710  0.000  1.300          
--------------------------------------------------------------------------------


  Lattice summation method               =    Ewald          (3-D)
                                         =    Parry          (2-D)
                                         =    Saunders et al (1-D)
  Accuracy factor for lattice sums       =   12.000


  Time limit = Infinity

  Maximum range for interatomic potentials =    100000.000000 Angstroms

  General interatomic potentials :

--------------------------------------------------------------------------------
Atom  Types   Potential         A         B         C         D     Cutoffs(Ang)
  1     2                                                            Min    Max 
--------------------------------------------------------------------------------
K    c K    c Buckingham    0.219E+04 0.192      0.00      0.00     0.000 10.000
Zn   c F    s Buckingham    0.148E+04 0.266      0.00      0.00     0.000 10.000
F    s F    s Buckingham     912.     0.271      13.8      0.00     0.000 10.000
K    c F    s Buckingham    0.352E+04 0.267      0.00      0.00     0.000 10.000
F    c F    s Spring (c-s)   34.7      0.00      0.00      0.00     0.000  0.800
--------------------------------------------------------------------------------

********************************************************************************
*  Output for configuration   1                                                *
********************************************************************************


  Components of energy : 

--------------------------------------------------------------------------------
  Interatomic potentials     =           3.87670295 eV
  Monopole - monopole (real) =         -16.14256254 eV
  Monopole - monopole (recip)=         -50.04440308 eV
  Monopole - monopole (total)=         -66.18696563 eV
--------------------------------------------------------------------------------
  Total lattice energy       =         -62.31026267 eV
--------------------------------------------------------------------------------
  Total lattice energy       =           -6011.9878 kJ/(mole unit cells)
--------------------------------------------------------------------------------


  Number of variables =       27

  Maximum number of calculations  =          1000
  Maximum Hessian update interval =            10
  Maximum step size               =   1.000000000
  Maximum parameter tolerance     =   0.000010000
  Maximum function  tolerance     =   0.000010000
  Maximum gradient  tolerance     =   0.001000000
  Maximum gradient  component     =   0.010000000

  Symmetry not applied to optimisation

  Cell parameters to be optimised using strains

  Newton-Raphson optimiser to be used

  BFGS hessian update to be used

  Start of bulk optimisation :

  Cycle:      0 Energy:       -62.310263  Gnorm:      0.693403  CPU:    0.003
  ** Hessian calculated **
  Cycle:      1 Energy:       -64.159129  Gnorm:      0.168059  CPU:    0.004
  Cycle:      2 Energy:       -64.234472  Gnorm:      0.001013  CPU:    0.006


  **** Optimisation achieved ****


  Final energy =     -64.23447443 eV
  Final Gnorm  =       0.00007940

  Components of energy : 

--------------------------------------------------------------------------------
  Interatomic potentials     =           9.24913413 eV
  Monopole - monopole (real) =         -17.92216543 eV
  Monopole - monopole (recip)=         -55.56144313 eV
  Monopole - monopole (total)=         -73.48360856 eV
--------------------------------------------------------------------------------
  Total lattice energy       =         -64.23447443 eV
--------------------------------------------------------------------------------
  Total lattice energy       =           -6197.6449 kJ/(mole unit cells)
--------------------------------------------------------------------------------

  Final fractional coordinates of atoms :

--------------------------------------------------------------------------------
   No.  Atomic        x           y          z          Radius
        Label       (Frac)      (Frac)     (Frac)       (Angs) 
--------------------------------------------------------------------------------
     1  K     c     0.000000    0.000000    0.000000    0.000000
     2  Zn    c     0.500000    0.500000    0.500000    0.000000
     3  F     c     0.500000    0.500000    0.000000    0.000000
     4  F     c     0.000000    0.500000    0.500000    0.000000
     5  F     c     0.500000    1.000000    0.500000    0.000000
     6  F     s     0.500000    0.500000    0.000000    0.000000
     7  F     s     0.000000    0.500000    0.500000    0.000000
     8  F     s     0.500000    1.000000    0.500000    0.000000
--------------------------------------------------------------------------------

  Final Cartesian lattice vectors (Angstroms) :

        3.782956    0.000000    0.000000
        0.000000    3.782956    0.000000
        0.000000    0.000000    3.782956


  Final cell parameters and derivatives :

--------------------------------------------------------------------------------
       a            3.782956 Angstrom     dE/de1(xx)    -0.001238 eV/strain
       b            3.782956 Angstrom     dE/de2(yy)    -0.001238 eV/strain
       c            3.782956 Angstrom     dE/de3(zz)    -0.001238 eV/strain
       alpha       90.000000 Degrees      dE/de4(yz)     0.000000 eV/strain
       beta        90.000000 Degrees      dE/de5(xz)     0.000000 eV/strain
       gamma       90.000000 Degrees      dE/de6(xy)     0.000000 eV/strain
--------------------------------------------------------------------------------

  Primitive cell volume =            54.136959 Angs**3

  Density of cell =      4.953450 g/cm**3

  Non-primitive cell volume =            54.136959 Angs**3


  Final internal derivatives :

--------------------------------------------------------------------------------
   No.  Atomic          a             b             c           Radius
        Label          (eV)          (eV)          (eV)        (eV/Angs)
--------------------------------------------------------------------------------
      1 K     c       0.000000      0.000000      0.000000      0.000000
      2 Zn    c       0.000000      0.000000      0.000000      0.000000
      3 F     c       0.000000      0.000000      0.000000      0.000000
      4 F     c       0.000000      0.000000      0.000000      0.000000
      5 F     c       0.000000      0.000000      0.000000      0.000000
      6 F     s       0.000000      0.000000      0.000000      0.000000
      7 F     s       0.000000      0.000000      0.000000      0.000000
      8 F     s       0.000000      0.000000      0.000000      0.000000
--------------------------------------------------------------------------------
  Maximum abs         0.000000      0.000000      0.000000      0.000000
--------------------------------------------------------------------------------


  Born effective charge tensors : 

-------------------------------------------------------------------------------
  Atom             x           y             z
-------------------------------------------------------------------------------
   1 K     x       1.4149      0.0000      0.0000
           y       0.0000      1.4149      0.0000
           z       0.0000      0.0000      1.4149
-------------------------------------------------------------------------------
   2 Zn    x       1.9038      0.0000      0.0000
           y       0.0000      1.9038      0.0000
           z       0.0000      0.0000      1.9038
-------------------------------------------------------------------------------
   3 F     x      -1.0673      0.0000      0.0000
           y       0.0000     -1.0673      0.0000
           z       0.0000      0.0000     -1.1841
-------------------------------------------------------------------------------
   4 F     x      -1.1841      0.0000      0.0000
           y       0.0000     -1.0673      0.0000
           z       0.0000      0.0000     -1.0673
-------------------------------------------------------------------------------
   5 F     x      -1.0673      0.0000      0.0000
           y       0.0000     -1.1841      0.0000
           z       0.0000      0.0000     -1.0673
-------------------------------------------------------------------------------




  Elastic Constant Matrix: (Units=GPa)

-------------------------------------------------------------------------------
  Indices      1         2         3         4         5         6    
-------------------------------------------------------------------------------
       1    251.7250   94.9730   94.9730    0.0000    0.0000    0.0000
       2     94.9730  251.7250   94.9730    0.0000    0.0000    0.0000
       3     94.9730   94.9730  251.7250    0.0000    0.0000    0.0000
       4      0.0000    0.0000    0.0000   94.9693    0.0000    0.0000
       5      0.0000    0.0000    0.0000    0.0000   94.9693    0.0000
       6      0.0000    0.0000    0.0000    0.0000    0.0000   94.9693
-------------------------------------------------------------------------------


  Elastic Compliance Matrix: (Units=1/GPa)

-------------------------------------------------------------------------------
  Indices      1         2         3         4         5         6    
-------------------------------------------------------------------------------
       1    0.005008 -0.001372 -0.001372  0.000000  0.000000  0.000000
       2   -0.001372  0.005008 -0.001372  0.000000  0.000000  0.000000
       3   -0.001372 -0.001372  0.005008  0.000000  0.000000  0.000000
       4    0.000000  0.000000  0.000000  0.010530  0.000000  0.000000
       5    0.000000  0.000000  0.000000  0.000000  0.010530  0.000000
       6    0.000000  0.000000  0.000000  0.000000  0.000000  0.010530
-------------------------------------------------------------------------------

  Mechanical properties :

-------------------------------------------------------------------------------
  Convention :                    Reuss         Voigt         Hill
-------------------------------------------------------------------------------
  Bulk  Modulus (GPa)     =     147.22366     147.22366     147.22366
  Shear Modulus (GPa)     =      87.55469      88.33200      87.94334
-------------------------------------------------------------------------------
  Velocity S-wave (km/s)  =       4.20422       4.22284       4.21354
  Velocity P-wave (km/s)  =       7.29992       7.31423       7.30708
-------------------------------------------------------------------------------
  Compressibility (1/GPa) =    0.00679239
-------------------------------------------------------------------------------
  Stress axis :                     x             y             z
-------------------------------------------------------------------------------
  Youngs Moduli (GPa)     =     199.69194     199.69194     199.69194
-------------------------------------------------------------------------------
  Poissons Ratio (x)      =                     0.27394       0.27394
  Poissons Ratio (y)      =       0.27394                     0.27394
  Poissons Ratio (z)      =       0.27394       0.27394
-------------------------------------------------------------------------------


  Piezoelectric Strain Matrix: (Units=C/m**2)

-------------------------------------------------------------------------------
  Indices      1         2         3         4         5         6    
-------------------------------------------------------------------------------
       x     0.00000   0.00000   0.00000   0.00000   0.00000   0.00000
       y     0.00000   0.00000   0.00000   0.00000   0.00000   0.00000
       z     0.00000   0.00000   0.00000   0.00000   0.00000   0.00000
-------------------------------------------------------------------------------


  Piezoelectric Stress Matrix: (Units=10**-11 C/N)

-------------------------------------------------------------------------------
  Indices      1         2         3         4         5         6    
-------------------------------------------------------------------------------
       x     0.00000   0.00000   0.00000   0.00000   0.00000   0.00000
       y     0.00000   0.00000   0.00000   0.00000   0.00000   0.00000
       z     0.00000   0.00000   0.00000   0.00000   0.00000   0.00000
-------------------------------------------------------------------------------


  Static dielectric constant tensor : 

-------------------------------------------------------------------------------
              x         y         z
-------------------------------------------------------------------------------
       x     5.42076   0.00000   0.00000
       y     0.00000   5.42076   0.00000
       z     0.00000   0.00000   5.42076
--------------------------------------------------------------------------------

  High frequency dielectric constant tensor : 

-------------------------------------------------------------------------------
              x         y         z
-------------------------------------------------------------------------------
       x     1.75227   0.00000   0.00000
       y     0.00000   1.75227   0.00000
       z     0.00000   0.00000   1.75227
-------------------------------------------------------------------------------

  Static refractive indices : 

-------------------------------------------------------------------------------
    1 =    2.32825      2 =    2.32825      3 =    2.32825
-------------------------------------------------------------------------------

  High frequency refractive indices : 

-------------------------------------------------------------------------------
    1 =    1.32373      2 =    1.32373      3 =    1.32373
-------------------------------------------------------------------------------


  Time to end of optimisation =       0.0101 seconds


  Peak dynamic memory used =       0.50 MB 


  Timing analysis for GULP :

--------------------------------------------------------------------------------
  Task / Subroutine                                          Time (Seconds)
--------------------------------------------------------------------------------
  Calculation of reciprocal space energy and derivatives          0.0009
  Calculation of real space energy and derivatives                0.0065
--------------------------------------------------------------------------------
  Total CPU time                                                  0.0102
--------------------------------------------------------------------------------


  CIF file written as perov.cif                                               


  Job Finished at 14:36.51  7th December   2016                               

