********************************************************************************
*                       GENERAL UTILITY LATTICE PROGRAM                        *
*                                 Julian Gale                                  *
*                      Nanochemistry Research Institute                        *
*                           Department of Chemistry                            *
*                    Curtin University, Western Australia                      *
********************************************************************************
* Version = 4.3.2 * Last modified =  3rd March 2015                            *
********************************************************************************
*  optimise     - perform optimisation run                                     *
*  conp         - constant pressure calculation                                *
*  property     - calculate properties for final geometry                      *
********************************************************************************

  Job Started  at 14:36.50  7th December   2016                               

  Number of CPUs =     1


  Total number of configurations input =   1

********************************************************************************
*  Input for Configuration =   1                                               *
********************************************************************************

  Formula = KZnF3                                                       

  Number of irreducible atoms/shells =       8


  Total number atoms/shells =       8

  Dimensionality = 3               :  Bulk   



  Cartesian lattice vectors (Angstroms) :

        4.200000    0.000000    0.000000
        0.000000    4.200000    0.000000
        0.000000    0.000000    4.200000

  Cell parameters (Angstroms/Degrees):

  a =       4.2000    alpha =  90.0000
  b =       4.2000    beta  =  90.0000
  c =       4.2000    gamma =  90.0000

  Initial cell volume =          74.088000 Angs**3

  Temperature of configuration =  0.000     K 

  Pressure of configuration =         0.000 GPa 

  Fractional coordinates of asymmetric unit :

--------------------------------------------------------------------------------
   No.  Atomic       x           y          z         Charge      Occupancy
        Label      (Frac)      (Frac)     (Frac)        (e)         (Frac)  
--------------------------------------------------------------------------------
      1 K     c    0.000000    0.000000    0.000000     1.10000    1.000000    
      2 Zn    c    0.500000 *  0.500000 *  0.500000 *   2.40000    1.000000    
      3 F     c    0.500000 *  0.500000 *  0.000000 *   0.37800    1.000000    
      4 F     c    0.000000 *  0.500000 *  0.500000 *   0.37800    1.000000    
      5 F     c    0.500000 *  0.000000 *  0.500000 *   0.37800    1.000000    
      6 F     s    0.500000 *  0.500000 *  0.000000 *  -1.54467    1.000000    
      7 F     s    0.000000 *  0.500000 *  0.500000 *  -1.54467    1.000000    
      8 F     s    0.500000 *  0.000000 *  0.500000 *  -1.54467    1.000000    
--------------------------------------------------------------------------------



********************************************************************************
*  General input information                                                   *
********************************************************************************

  Species output for all configurations : 

--------------------------------------------------------------------------------
  Species    Type    Atomic    Atomic    Charge       Radii (Angs)     Library
                     Number     Mass       (e)     Cova   Ionic  VDW   Symbol
--------------------------------------------------------------------------------
    K        Core       19      39.10   1.100000   1.330  0.000  2.800          
    Zn       Core       30      65.39   2.400000   1.450  0.000  2.160          
    F        Core        9      19.00   0.378000   0.710  0.000  1.300          
    F        Shell       9       0.00  -1.544667   0.710  0.000  1.300          
--------------------------------------------------------------------------------


  Lattice summation method               =    Ewald          (3-D)
                                         =    Parry          (2-D)
                                         =    Saunders et al (1-D)
  Accuracy factor for lattice sums       =   12.000


  Time limit = Infinity

  Maximum range for interatomic potentials =    100000.000000 Angstroms

  General interatomic potentials :

--------------------------------------------------------------------------------
Atom  Types   Potential         A         B         C         D     Cutoffs(Ang)
  1     2                                                            Min    Max 
--------------------------------------------------------------------------------
K    c K    c Buckingham    0.219E+04 0.192      0.00      0.00     0.000 10.000
Zn   c F    s Buckingham    0.148E+04 0.266      0.00      0.00     0.000 10.000
F    s F    s Buckingham     912.     0.271      13.8      0.00     0.000 10.000
K    c F    s Buckingham    0.352E+04 0.267      0.00      0.00     0.000 10.000
F    c F    s Spring (c-s)   30.6      0.00      0.00      0.00     0.000  0.800
--------------------------------------------------------------------------------

********************************************************************************
*  Output for configuration   1                                                *
********************************************************************************


  Components of energy : 

--------------------------------------------------------------------------------
  Interatomic potentials     =           3.87670295 eV
  Monopole - monopole (real) =         -14.54457406 eV
  Monopole - monopole (recip)=         -44.17900762 eV
  Monopole - monopole (total)=         -58.72358168 eV
--------------------------------------------------------------------------------
  Total lattice energy       =         -54.84687873 eV
--------------------------------------------------------------------------------
  Total lattice energy       =           -5291.8854 kJ/(mole unit cells)
--------------------------------------------------------------------------------


  Number of variables =       27

  Maximum number of calculations  =          1000
  Maximum Hessian update interval =            10
  Maximum step size               =   1.000000000
  Maximum parameter tolerance     =   0.000010000
  Maximum function  tolerance     =   0.000010000
  Maximum gradient  tolerance     =   0.001000000
  Maximum gradient  component     =   0.010000000

  Symmetry not applied to optimisation

  Cell parameters to be optimised using strains

  Newton-Raphson optimiser to be used

  BFGS hessian update to be used

  Start of bulk optimisation :

  Cycle:      0 Energy:       -54.846879  Gnorm:      0.533811  CPU:    0.003
  ** Hessian calculated **
  Cycle:      1 Energy:       -55.962500  Gnorm:      0.159812  CPU:    0.004
  Cycle:      2 Energy:       -56.017521  Gnorm:      0.057947  CPU:    0.006
  Cycle:      3 Energy:       -56.027070  Gnorm:      0.000073  CPU:    0.008
  ** Hessian calculated **


  **** Optimisation achieved ****


  Final energy =     -56.02706961 eV
  Final Gnorm  =       0.00000140

  Components of energy : 

--------------------------------------------------------------------------------
  Interatomic potentials     =           7.91476055 eV
  Monopole - monopole (real) =         -15.83702250 eV
  Monopole - monopole (recip)=         -48.10480766 eV
  Monopole - monopole (total)=         -63.94183016 eV
--------------------------------------------------------------------------------
  Total lattice energy       =         -56.02706961 eV
--------------------------------------------------------------------------------
  Total lattice energy       =           -5405.7558 kJ/(mole unit cells)
--------------------------------------------------------------------------------

  Final fractional coordinates of atoms :

--------------------------------------------------------------------------------
   No.  Atomic        x           y          z          Radius
        Label       (Frac)      (Frac)     (Frac)       (Angs) 
--------------------------------------------------------------------------------
     1  K     c     0.000000    0.000000    0.000000    0.000000
     2  Zn    c     0.500000    0.500000    0.500000    0.000000
     3  F     c     0.500000    0.500000    0.000000    0.000000
     4  F     c     1.000000    0.500000    0.500000    0.000000
     5  F     c     0.500000    0.000000    0.500000    0.000000
     6  F     s     0.500000    0.500000    1.000000    0.000000
     7  F     s     1.000000    0.500000    0.500000    0.000000
     8  F     s     0.500000    1.000000    0.500000    0.000000
--------------------------------------------------------------------------------

  Final Cartesian lattice vectors (Angstroms) :

        3.857241    0.000000    0.000000
        0.000000    3.857241    0.000000
        0.000000    0.000000    3.857241


  Final cell parameters and derivatives :

--------------------------------------------------------------------------------
       a            3.857241 Angstrom     dE/de1(xx)    -0.000008 eV/strain
       b            3.857241 Angstrom     dE/de2(yy)    -0.000008 eV/strain
       c            3.857241 Angstrom     dE/de3(zz)    -0.000008 eV/strain
       alpha       90.000000 Degrees      dE/de4(yz)     0.000000 eV/strain
       beta        90.000000 Degrees      dE/de5(xz)     0.000000 eV/strain
       gamma       90.000000 Degrees      dE/de6(xy)     0.000000 eV/strain
--------------------------------------------------------------------------------

  Primitive cell volume =            57.389216 Angs**3

  Density of cell =      4.672737 g/cm**3

  Non-primitive cell volume =            57.389216 Angs**3


  Final internal derivatives :

--------------------------------------------------------------------------------
   No.  Atomic          a             b             c           Radius
        Label          (eV)          (eV)          (eV)        (eV/Angs)
--------------------------------------------------------------------------------
      1 K     c       0.000000      0.000000      0.000000      0.000000
      2 Zn    c       0.000027      0.000005      0.000000      0.000000
      3 F     c       0.000002      0.000001      0.000000      0.000000
      4 F     c      -0.000018      0.000001      0.000000      0.000000
      5 F     c       0.000002     -0.000002      0.000000      0.000000
      6 F     s       0.000000     -0.000001      0.000000      0.000000
      7 F     s      -0.000013      0.000000      0.000000      0.000000
      8 F     s       0.000000     -0.000004      0.000000      0.000000
--------------------------------------------------------------------------------
  Maximum abs         0.000027      0.000005      0.000000      0.000000
--------------------------------------------------------------------------------


  Born effective charge tensors : 

-------------------------------------------------------------------------------
  Atom             x           y             z
-------------------------------------------------------------------------------
   1 K     x       1.0669      0.0000      0.0000
           y       0.0000      1.0669      0.0000
           z       0.0000      0.0000      1.0669
-------------------------------------------------------------------------------
   2 Zn    x       1.9599      0.0000      0.0000
           y       0.0000      1.9599      0.0000
           z       0.0000      0.0000      1.9599
-------------------------------------------------------------------------------
   3 F     x      -0.9493      0.0000      0.0000
           y       0.0000     -0.9493      0.0000
           z       0.0000      0.0000     -1.1282
-------------------------------------------------------------------------------
   4 F     x      -1.1282      0.0000      0.0000
           y       0.0000     -0.9493      0.0000
           z       0.0000      0.0000     -0.9493
-------------------------------------------------------------------------------
   5 F     x      -0.9493      0.0000      0.0000
           y       0.0000     -1.1282      0.0000
           z       0.0000      0.0000     -0.9493
-------------------------------------------------------------------------------




  Elastic Constant Matrix: (Units=GPa)

-------------------------------------------------------------------------------
  Indices      1         2         3         4         5         6    
-------------------------------------------------------------------------------
       1    212.1403   78.9299   78.9299    0.0000    0.0000    0.0000
       2     78.9299  212.1403   78.9299    0.0000    0.0000    0.0000
       3     78.9299   78.9299  212.1403    0.0000    0.0000    0.0000
       4      0.0000    0.0000    0.0000   78.9299    0.0000    0.0000
       5      0.0000    0.0000    0.0000    0.0000   78.9299    0.0000
       6      0.0000    0.0000    0.0000    0.0000    0.0000   78.9299
-------------------------------------------------------------------------------


  Elastic Compliance Matrix: (Units=1/GPa)

-------------------------------------------------------------------------------
  Indices      1         2         3         4         5         6    
-------------------------------------------------------------------------------
       1    0.005906 -0.001601 -0.001601  0.000000  0.000000  0.000000
       2   -0.001601  0.005906 -0.001601  0.000000  0.000000  0.000000
       3   -0.001601 -0.001601  0.005906  0.000000  0.000000  0.000000
       4    0.000000  0.000000  0.000000  0.012669  0.000000  0.000000
       5    0.000000  0.000000  0.000000  0.000000  0.012669  0.000000
       6    0.000000  0.000000  0.000000  0.000000  0.000000  0.012669
-------------------------------------------------------------------------------

  Mechanical properties :

-------------------------------------------------------------------------------
  Convention :                    Reuss         Voigt         Hill
-------------------------------------------------------------------------------
  Bulk  Modulus (GPa)     =     123.33335     123.33335     123.33335
  Shear Modulus (GPa)     =      73.49038      74.00000      73.74519
-------------------------------------------------------------------------------
  Velocity S-wave (km/s)  =       3.96579       3.97952       3.97266
  Velocity P-wave (km/s)  =       6.88217       6.89272       6.88745
-------------------------------------------------------------------------------
  Compressibility (1/GPa) =    0.00810811
-------------------------------------------------------------------------------
  Stress axis :                     x             y             z
-------------------------------------------------------------------------------
  Youngs Moduli (GPa)     =     169.33324     169.33324     169.33324
-------------------------------------------------------------------------------
  Poissons Ratio (x)      =                     0.27117       0.27117
  Poissons Ratio (y)      =       0.27117                     0.27117
  Poissons Ratio (z)      =       0.27117       0.27117
-------------------------------------------------------------------------------


  Piezoelectric Strain Matrix: (Units=C/m**2)

-------------------------------------------------------------------------------
  Indices      1         2         3         4         5         6    
-------------------------------------------------------------------------------
       x     0.00009   0.00000   0.00000   0.00000   0.00000   0.00000
       y     0.00000   0.00003   0.00000   0.00000   0.00000  -0.00001
       z     0.00000   0.00000   0.00000   0.00000  -0.00001   0.00000
-------------------------------------------------------------------------------


  Piezoelectric Stress Matrix: (Units=10**-11 C/N)

-------------------------------------------------------------------------------
  Indices      1         2         3         4         5         6    
-------------------------------------------------------------------------------
       x     0.00005  -0.00001  -0.00001   0.00000   0.00000   0.00000
       y    -0.00001   0.00002  -0.00001   0.00000   0.00000  -0.00001
       z     0.00000   0.00000   0.00000   0.00000  -0.00001   0.00000
-------------------------------------------------------------------------------


  Static dielectric constant tensor : 

-------------------------------------------------------------------------------
              x         y         z
-------------------------------------------------------------------------------
       x     4.34375   0.00000   0.00000
       y     0.00000   4.34375   0.00000
       z     0.00000   0.00000   4.34375
--------------------------------------------------------------------------------

  High frequency dielectric constant tensor : 

-------------------------------------------------------------------------------
              x         y         z
-------------------------------------------------------------------------------
       x     1.70673   0.00000   0.00000
       y     0.00000   1.70673   0.00000
       z     0.00000   0.00000   1.70673
-------------------------------------------------------------------------------

  Static refractive indices : 

-------------------------------------------------------------------------------
    1 =    2.08417      2 =    2.08417      3 =    2.08417
-------------------------------------------------------------------------------

  High frequency refractive indices : 

-------------------------------------------------------------------------------
    1 =    1.30642      2 =    1.30642      3 =    1.30642
-------------------------------------------------------------------------------


  Time to end of optimisation =       0.0127 seconds


  Peak dynamic memory used =       0.50 MB 


  Timing analysis for GULP :

--------------------------------------------------------------------------------
  Task / Subroutine                                          Time (Seconds)
--------------------------------------------------------------------------------
  Calculation of reciprocal space energy and derivatives          0.0012
  Calculation of real space energy and derivatives                0.0084
--------------------------------------------------------------------------------
  Total CPU time                                                  0.0128
--------------------------------------------------------------------------------


  CIF file written as perov.cif                                               


  Job Finished at 14:36.50  7th December   2016                               

