********************************************************************************
*                       GENERAL UTILITY LATTICE PROGRAM                        *
*                                 Julian Gale                                  *
*                      Nanochemistry Research Institute                        *
*                           Department of Chemistry                            *
*                    Curtin University, Western Australia                      *
********************************************************************************
* Version = 4.3.2 * Last modified =  3rd March 2015                            *
********************************************************************************
*  optimise     - perform optimisation run                                     *
*  conp         - constant pressure calculation                                *
*  property     - calculate properties for final geometry                      *
********************************************************************************

  Job Started  at 14:36.51  7th December   2016                               

  Number of CPUs =     1


  Total number of configurations input =   1

********************************************************************************
*  Input for Configuration =   1                                               *
********************************************************************************

  Formula = KZnF3                                                       

  Number of irreducible atoms/shells =       8


  Total number atoms/shells =       8

  Dimensionality = 3               :  Bulk   



  Cartesian lattice vectors (Angstroms) :

        4.200000    0.000000    0.000000
        0.000000    4.200000    0.000000
        0.000000    0.000000    4.200000

  Cell parameters (Angstroms/Degrees):

  a =       4.2000    alpha =  90.0000
  b =       4.2000    beta  =  90.0000
  c =       4.2000    gamma =  90.0000

  Initial cell volume =          74.088000 Angs**3

  Temperature of configuration =  0.000     K 

  Pressure of configuration =         0.000 GPa 

  Fractional coordinates of asymmetric unit :

--------------------------------------------------------------------------------
   No.  Atomic       x           y          z         Charge      Occupancy
        Label      (Frac)      (Frac)     (Frac)        (e)         (Frac)  
--------------------------------------------------------------------------------
      1 K     c    0.000000    0.000000    0.000000     1.40000    1.000000    
      2 Zn    c    0.500000 *  0.500000 *  0.500000 *   1.80000    1.000000    
      3 F     c    0.500000 *  0.500000 *  0.000000 *   0.37800    1.000000    
      4 F     c    0.000000 *  0.500000 *  0.500000 *   0.37800    1.000000    
      5 F     c    0.500000 *  0.000000 *  0.500000 *   0.37800    1.000000    
      6 F     s    0.500000 *  0.500000 *  0.000000 *  -1.44467    1.000000    
      7 F     s    0.000000 *  0.500000 *  0.500000 *  -1.44467    1.000000    
      8 F     s    0.500000 *  0.000000 *  0.500000 *  -1.44467    1.000000    
--------------------------------------------------------------------------------



********************************************************************************
*  General input information                                                   *
********************************************************************************

  Species output for all configurations : 

--------------------------------------------------------------------------------
  Species    Type    Atomic    Atomic    Charge       Radii (Angs)     Library
                     Number     Mass       (e)     Cova   Ionic  VDW   Symbol
--------------------------------------------------------------------------------
    K        Core       19      39.10   1.400000   1.330  0.000  2.800          
    Zn       Core       30      65.39   1.800000   1.450  0.000  2.160          
    F        Core        9      19.00   0.378000   0.710  0.000  1.300          
    F        Shell       9       0.00  -1.444667   0.710  0.000  1.300          
--------------------------------------------------------------------------------


  Lattice summation method               =    Ewald          (3-D)
                                         =    Parry          (2-D)
                                         =    Saunders et al (1-D)
  Accuracy factor for lattice sums       =   12.000


  Time limit = Infinity

  Maximum range for interatomic potentials =    100000.000000 Angstroms

  General interatomic potentials :

--------------------------------------------------------------------------------
Atom  Types   Potential         A         B         C         D     Cutoffs(Ang)
  1     2                                                            Min    Max 
--------------------------------------------------------------------------------
K    c K    c Buckingham    0.219E+04 0.192      0.00      0.00     0.000 10.000
Zn   c F    s Buckingham    0.148E+04 0.266      0.00      0.00     0.000 10.000
F    s F    s Buckingham     912.     0.271      13.8      0.00     0.000 10.000
K    c F    s Buckingham    0.352E+04 0.267      0.00      0.00     0.000 10.000
F    c F    s Spring (c-s)   26.8      0.00      0.00      0.00     0.000  0.800
--------------------------------------------------------------------------------

********************************************************************************
*  Output for configuration   1                                                *
********************************************************************************


  Components of energy : 

--------------------------------------------------------------------------------
  Interatomic potentials     =           3.87670295 eV
  Monopole - monopole (real) =         -10.56238875 eV
  Monopole - monopole (recip)=         -34.23541991 eV
  Monopole - monopole (total)=         -44.79780865 eV
--------------------------------------------------------------------------------
  Total lattice energy       =         -40.92110570 eV
--------------------------------------------------------------------------------
  Total lattice energy       =           -3948.2612 kJ/(mole unit cells)
--------------------------------------------------------------------------------


  Number of variables =       27

  Maximum number of calculations  =          1000
  Maximum Hessian update interval =            10
  Maximum step size               =   1.000000000
  Maximum parameter tolerance     =   0.000010000
  Maximum function  tolerance     =   0.000010000
  Maximum gradient  tolerance     =   0.001000000
  Maximum gradient  component     =   0.010000000

  Symmetry not applied to optimisation

  Cell parameters to be optimised using strains

  Newton-Raphson optimiser to be used

  BFGS hessian update to be used

  Start of bulk optimisation :

  Cycle:      0 Energy:       -40.921106  Gnorm:      0.236031  CPU:    0.003
  ** Hessian calculated **
  Cycle:      1 Energy:       -41.165253  Gnorm:      0.033924  CPU:    0.004
  Cycle:      2 Energy:       -41.169138  Gnorm:      0.006450  CPU:    0.006
  Cycle:      3 Energy:       -41.169289  Gnorm:      0.000011  CPU:    0.007


  **** Optimisation achieved ****


  Final energy =     -41.16928875 eV
  Final Gnorm  =       0.00000005

  Components of energy : 

--------------------------------------------------------------------------------
  Interatomic potentials     =           5.57578310 eV
  Monopole - monopole (real) =         -11.02151279 eV
  Monopole - monopole (recip)=         -35.72355906 eV
  Monopole - monopole (total)=         -46.74507185 eV
--------------------------------------------------------------------------------
  Total lattice energy       =         -41.16928875 eV
--------------------------------------------------------------------------------
  Total lattice energy       =           -3972.2070 kJ/(mole unit cells)
--------------------------------------------------------------------------------

  Final fractional coordinates of atoms :

--------------------------------------------------------------------------------
   No.  Atomic        x           y          z          Radius
        Label       (Frac)      (Frac)     (Frac)       (Angs) 
--------------------------------------------------------------------------------
     1  K     c     0.000000    0.000000    0.000000    0.000000
     2  Zn    c     0.500000    0.500000    0.500000    0.000000
     3  F     c     0.500000    0.500000    1.000000    0.000000
     4  F     c     0.000000    0.500000    0.500000    0.000000
     5  F     c     0.500000    0.000000    0.500000    0.000000
     6  F     s     0.500000    0.500000    1.000000    0.000000
     7  F     s     0.000000    0.500000    0.500000    0.000000
     8  F     s     0.500000    0.000000    0.500000    0.000000
--------------------------------------------------------------------------------

  Final Cartesian lattice vectors (Angstroms) :

        4.025040    0.000000    0.000000
        0.000000    4.025040    0.000000
        0.000000    0.000000    4.025040


  Final cell parameters and derivatives :

--------------------------------------------------------------------------------
       a            4.025040 Angstrom     dE/de1(xx)    -0.000001 eV/strain
       b            4.025040 Angstrom     dE/de2(yy)    -0.000001 eV/strain
       c            4.025040 Angstrom     dE/de3(zz)    -0.000001 eV/strain
       alpha       90.000000 Degrees      dE/de4(yz)     0.000000 eV/strain
       beta        90.000000 Degrees      dE/de5(xz)     0.000000 eV/strain
       gamma       90.000000 Degrees      dE/de6(xy)     0.000000 eV/strain
--------------------------------------------------------------------------------

  Primitive cell volume =            65.209473 Angs**3

  Density of cell =      4.112358 g/cm**3

  Non-primitive cell volume =            65.209473 Angs**3


  Final internal derivatives :

--------------------------------------------------------------------------------
   No.  Atomic          a             b             c           Radius
        Label          (eV)          (eV)          (eV)        (eV/Angs)
--------------------------------------------------------------------------------
      1 K     c       0.000000      0.000000      0.000000      0.000000
      2 Zn    c       0.000000      0.000000      0.000000      0.000000
      3 F     c       0.000000      0.000000      0.000000      0.000000
      4 F     c       0.000000      0.000000      0.000000      0.000000
      5 F     c       0.000000      0.000000      0.000000      0.000000
      6 F     s       0.000000      0.000000      0.000000      0.000000
      7 F     s       0.000000      0.000000      0.000000      0.000000
      8 F     s       0.000000      0.000000      0.000000      0.000000
--------------------------------------------------------------------------------
  Maximum abs         0.000000      0.000000      0.000000      0.000000
--------------------------------------------------------------------------------


  Born effective charge tensors : 

-------------------------------------------------------------------------------
  Atom             x           y             z
-------------------------------------------------------------------------------
   1 K     x       1.4967      0.0000      0.0000
           y       0.0000      1.4967      0.0000
           z       0.0000      0.0000      1.4967
-------------------------------------------------------------------------------
   2 Zn    x       1.3347      0.0000      0.0000
           y       0.0000      1.3347      0.0000
           z       0.0000      0.0000      1.3347
-------------------------------------------------------------------------------
   3 F     x      -0.9777      0.0000      0.0000
           y       0.0000     -0.9777      0.0000
           z       0.0000      0.0000     -0.8760
-------------------------------------------------------------------------------
   4 F     x      -0.8760      0.0000      0.0000
           y       0.0000     -0.9777      0.0000
           z       0.0000      0.0000     -0.9777
-------------------------------------------------------------------------------
   5 F     x      -0.9777      0.0000      0.0000
           y       0.0000     -0.8760      0.0000
           z       0.0000      0.0000     -0.9777
-------------------------------------------------------------------------------




  Elastic Constant Matrix: (Units=GPa)

-------------------------------------------------------------------------------
  Indices      1         2         3         4         5         6    
-------------------------------------------------------------------------------
       1    161.5834   43.6766   43.6766    0.0000    0.0000    0.0000
       2     43.6766  161.5834   43.6766    0.0000    0.0000    0.0000
       3     43.6766   43.6766  161.5834    0.0000    0.0000    0.0000
       4      0.0000    0.0000    0.0000   43.6766    0.0000    0.0000
       5      0.0000    0.0000    0.0000    0.0000   43.6766    0.0000
       6      0.0000    0.0000    0.0000    0.0000    0.0000   43.6766
-------------------------------------------------------------------------------


  Elastic Compliance Matrix: (Units=1/GPa)

-------------------------------------------------------------------------------
  Indices      1         2         3         4         5         6    
-------------------------------------------------------------------------------
       1    0.006993 -0.001488 -0.001488  0.000000  0.000000  0.000000
       2   -0.001488  0.006993 -0.001488  0.000000  0.000000  0.000000
       3   -0.001488 -0.001488  0.006993  0.000000  0.000000  0.000000
       4    0.000000  0.000000  0.000000  0.022896  0.000000  0.000000
       5    0.000000  0.000000  0.000000  0.000000  0.022896  0.000000
       6    0.000000  0.000000  0.000000  0.000000  0.000000  0.022896
-------------------------------------------------------------------------------

  Mechanical properties :

-------------------------------------------------------------------------------
  Convention :                    Reuss         Voigt         Hill
-------------------------------------------------------------------------------
  Bulk  Modulus (GPa)     =      82.97889      82.97889      82.97889
  Shear Modulus (GPa)     =      48.72738      49.78733      49.25736
-------------------------------------------------------------------------------
  Velocity S-wave (km/s)  =       3.44224       3.47948       3.46091
  Velocity P-wave (km/s)  =       5.99805       6.02663       6.01236
-------------------------------------------------------------------------------
  Compressibility (1/GPa) =    0.01205126
-------------------------------------------------------------------------------
  Stress axis :                     x             y             z
-------------------------------------------------------------------------------
  Youngs Moduli (GPa)     =     142.99576     142.99576     142.99576
-------------------------------------------------------------------------------
  Poissons Ratio (x)      =                     0.21279       0.21279
  Poissons Ratio (y)      =       0.21279                     0.21279
  Poissons Ratio (z)      =       0.21279       0.21279
-------------------------------------------------------------------------------


  Piezoelectric Strain Matrix: (Units=C/m**2)

-------------------------------------------------------------------------------
  Indices      1         2         3         4         5         6    
-------------------------------------------------------------------------------
       x     0.00000   0.00000   0.00000   0.00000   0.00000   0.00000
       y     0.00000   0.00000   0.00000   0.00000   0.00000   0.00000
       z     0.00000   0.00000   0.00000   0.00000   0.00000   0.00000
-------------------------------------------------------------------------------


  Piezoelectric Stress Matrix: (Units=10**-11 C/N)

-------------------------------------------------------------------------------
  Indices      1         2         3         4         5         6    
-------------------------------------------------------------------------------
       x     0.00000   0.00000   0.00000   0.00000   0.00000   0.00000
       y     0.00000   0.00000   0.00000   0.00000   0.00000   0.00000
       z     0.00000   0.00000   0.00000   0.00000   0.00000   0.00000
-------------------------------------------------------------------------------


  Static dielectric constant tensor : 

-------------------------------------------------------------------------------
              x         y         z
-------------------------------------------------------------------------------
       x    10.36085   0.00000   0.00000
       y     0.00000  10.36085   0.00000
       z     0.00000   0.00000  10.36085
--------------------------------------------------------------------------------

  High frequency dielectric constant tensor : 

-------------------------------------------------------------------------------
              x         y         z
-------------------------------------------------------------------------------
       x     1.62966   0.00000   0.00000
       y     0.00000   1.62966   0.00000
       z     0.00000   0.00000   1.62966
-------------------------------------------------------------------------------

  Static refractive indices : 

-------------------------------------------------------------------------------
    1 =    3.21883      2 =    3.21883      3 =    3.21883
-------------------------------------------------------------------------------

  High frequency refractive indices : 

-------------------------------------------------------------------------------
    1 =    1.27658      2 =    1.27658      3 =    1.27658
-------------------------------------------------------------------------------


  Time to end of optimisation =       0.0110 seconds


  Peak dynamic memory used =       0.50 MB 


  Timing analysis for GULP :

--------------------------------------------------------------------------------
  Task / Subroutine                                          Time (Seconds)
--------------------------------------------------------------------------------
  Calculation of reciprocal space energy and derivatives          0.0010
  Calculation of real space energy and derivatives                0.0071
--------------------------------------------------------------------------------
  Total CPU time                                                  0.0110
--------------------------------------------------------------------------------


  CIF file written as perov.cif                                               


  Job Finished at 14:36.51  7th December   2016                               

