********************************************************************************
*                       GENERAL UTILITY LATTICE PROGRAM                        *
*                                 Julian Gale                                  *
*                      Nanochemistry Research Institute                        *
*                           Department of Chemistry                            *
*                    Curtin University, Western Australia                      *
********************************************************************************
* Version = 4.3.2 * Last modified =  3rd March 2015                            *
********************************************************************************
*  optimise     - perform optimisation run                                     *
*  conp         - constant pressure calculation                                *
*  property     - calculate properties for final geometry                      *
********************************************************************************

  Job Started  at 14:36.50  7th December   2016                               

  Number of CPUs =     1


  Total number of configurations input =   1

********************************************************************************
*  Input for Configuration =   1                                               *
********************************************************************************

  Formula = KZnF3                                                       

  Number of irreducible atoms/shells =       8


  Total number atoms/shells =       8

  Dimensionality = 3               :  Bulk   



  Cartesian lattice vectors (Angstroms) :

        4.200000    0.000000    0.000000
        0.000000    4.200000    0.000000
        0.000000    0.000000    4.200000

  Cell parameters (Angstroms/Degrees):

  a =       4.2000    alpha =  90.0000
  b =       4.2000    beta  =  90.0000
  c =       4.2000    gamma =  90.0000

  Initial cell volume =          74.088000 Angs**3

  Temperature of configuration =  0.000     K 

  Pressure of configuration =         0.000 GPa 

  Fractional coordinates of asymmetric unit :

--------------------------------------------------------------------------------
   No.  Atomic       x           y          z         Charge      Occupancy
        Label      (Frac)      (Frac)     (Frac)        (e)         (Frac)  
--------------------------------------------------------------------------------
      1 K     c    0.000000    0.000000    0.000000     1.20000    1.000000    
      2 Zn    c    0.500000 *  0.500000 *  0.500000 *   1.60000    1.000000    
      3 F     c    0.500000 *  0.500000 *  0.000000 *   0.37800    1.000000    
      4 F     c    0.000000 *  0.500000 *  0.500000 *   0.37800    1.000000    
      5 F     c    0.500000 *  0.000000 *  0.500000 *   0.37800    1.000000    
      6 F     s    0.500000 *  0.500000 *  0.000000 *  -1.31133    1.000000    
      7 F     s    0.000000 *  0.500000 *  0.500000 *  -1.31133    1.000000    
      8 F     s    0.500000 *  0.000000 *  0.500000 *  -1.31133    1.000000    
--------------------------------------------------------------------------------



********************************************************************************
*  General input information                                                   *
********************************************************************************

  Species output for all configurations : 

--------------------------------------------------------------------------------
  Species    Type    Atomic    Atomic    Charge       Radii (Angs)     Library
                     Number     Mass       (e)     Cova   Ionic  VDW   Symbol
--------------------------------------------------------------------------------
    K        Core       19      39.10   1.200000   1.330  0.000  2.800          
    Zn       Core       30      65.39   1.600000   1.450  0.000  2.160          
    F        Core        9      19.00   0.378000   0.710  0.000  1.300          
    F        Shell       9       0.00  -1.311333   0.710  0.000  1.300          
--------------------------------------------------------------------------------


  Lattice summation method               =    Ewald          (3-D)
                                         =    Parry          (2-D)
                                         =    Saunders et al (1-D)
  Accuracy factor for lattice sums       =   12.000


  Time limit = Infinity

  Maximum range for interatomic potentials =    100000.000000 Angstroms

  General interatomic potentials :

--------------------------------------------------------------------------------
Atom  Types   Potential         A         B         C         D     Cutoffs(Ang)
  1     2                                                            Min    Max 
--------------------------------------------------------------------------------
K    c K    c Buckingham    0.219E+04 0.192      0.00      0.00     0.000 10.000
Zn   c F    s Buckingham    0.148E+04 0.266      0.00      0.00     0.000 10.000
F    s F    s Buckingham     912.     0.271      13.8      0.00     0.000 10.000
K    c F    s Buckingham    0.352E+04 0.267      0.00      0.00     0.000 10.000
F    c F    s Spring (c-s)   22.0      0.00      0.00      0.00     0.000  0.800
--------------------------------------------------------------------------------

********************************************************************************
*  Output for configuration   1                                                *
********************************************************************************


  Components of energy : 

--------------------------------------------------------------------------------
  Interatomic potentials     =           3.87670295 eV
  Monopole - monopole (real) =          -8.17334406 eV
  Monopole - monopole (recip)=         -26.30717888 eV
  Monopole - monopole (total)=         -34.48052294 eV
--------------------------------------------------------------------------------
  Total lattice energy       =         -30.60381999 eV
--------------------------------------------------------------------------------
  Total lattice energy       =           -2952.8008 kJ/(mole unit cells)
--------------------------------------------------------------------------------


  Number of variables =       27

  Maximum number of calculations  =          1000
  Maximum Hessian update interval =            10
  Maximum step size               =   1.000000000
  Maximum parameter tolerance     =   0.000010000
  Maximum function  tolerance     =   0.000010000
  Maximum gradient  tolerance     =   0.001000000
  Maximum gradient  component     =   0.010000000

  Symmetry not applied to optimisation

  Cell parameters to be optimised using strains

  Newton-Raphson optimiser to be used

  BFGS hessian update to be used

  Start of bulk optimisation :

  Cycle:      0 Energy:       -30.603820  Gnorm:      0.015413  CPU:    0.003
  ** Hessian calculated **
  Cycle:      1 Energy:       -30.604946  Gnorm:      0.000031  CPU:    0.005


  **** Optimisation achieved ****


  Final energy =     -30.60494590 eV
  Final Gnorm  =       0.00000043

  Components of energy : 

--------------------------------------------------------------------------------
  Interatomic potentials     =           3.98303157 eV
  Monopole - monopole (real) =          -8.19881534 eV
  Monopole - monopole (recip)=         -26.38916213 eV
  Monopole - monopole (total)=         -34.58797747 eV
--------------------------------------------------------------------------------
  Total lattice energy       =         -30.60494590 eV
--------------------------------------------------------------------------------
  Total lattice energy       =           -2952.9094 kJ/(mole unit cells)
--------------------------------------------------------------------------------

  Final fractional coordinates of atoms :

--------------------------------------------------------------------------------
   No.  Atomic        x           y          z          Radius
        Label       (Frac)      (Frac)     (Frac)       (Angs) 
--------------------------------------------------------------------------------
     1  K     c     0.000000    0.000000    0.000000    0.000000
     2  Zn    c     0.500000    0.500000    0.500000    0.000000
     3  F     c     0.500000    0.500000    0.000000    0.000000
     4  F     c     0.000000    0.500000    0.500000    0.000000
     5  F     c     0.500000    0.000000    0.500000    0.000000
     6  F     s     0.500000    0.500000    0.000000    0.000000
     7  F     s     0.000000    0.500000    0.500000    0.000000
     8  F     s     0.500000    0.000000    0.500000    0.000000
--------------------------------------------------------------------------------

  Final Cartesian lattice vectors (Angstroms) :

        4.186952    0.000000    0.000000
        0.000000    4.186952    0.000000
        0.000000    0.000000    4.186952


  Final cell parameters and derivatives :

--------------------------------------------------------------------------------
       a            4.186952 Angstrom     dE/de1(xx)     0.000007 eV/strain
       b            4.186952 Angstrom     dE/de2(yy)     0.000007 eV/strain
       c            4.186952 Angstrom     dE/de3(zz)     0.000007 eV/strain
       alpha       90.000000 Degrees      dE/de4(yz)     0.000000 eV/strain
       beta        90.000000 Degrees      dE/de5(xz)     0.000000 eV/strain
       gamma       90.000000 Degrees      dE/de6(xy)     0.000000 eV/strain
--------------------------------------------------------------------------------

  Primitive cell volume =            73.399635 Angs**3

  Density of cell =      3.653488 g/cm**3

  Non-primitive cell volume =            73.399635 Angs**3


  Final internal derivatives :

--------------------------------------------------------------------------------
   No.  Atomic          a             b             c           Radius
        Label          (eV)          (eV)          (eV)        (eV/Angs)
--------------------------------------------------------------------------------
      1 K     c       0.000000      0.000000      0.000000      0.000000
      2 Zn    c       0.000000      0.000000      0.000000      0.000000
      3 F     c       0.000000      0.000000      0.000000      0.000000
      4 F     c       0.000000      0.000000      0.000000      0.000000
      5 F     c       0.000000      0.000000      0.000000      0.000000
      6 F     s       0.000000      0.000000      0.000000      0.000000
      7 F     s       0.000000      0.000000      0.000000      0.000000
      8 F     s       0.000000      0.000000      0.000000      0.000000
--------------------------------------------------------------------------------
  Maximum abs         0.000000      0.000000      0.000000      0.000000
--------------------------------------------------------------------------------


  Born effective charge tensors : 

-------------------------------------------------------------------------------
  Atom             x           y             z
-------------------------------------------------------------------------------
   1 K     x       1.2822      0.0000      0.0000
           y       0.0000      1.2822      0.0000
           z       0.0000      0.0000      1.2822
-------------------------------------------------------------------------------
   2 Zn    x       1.2021      0.0000      0.0000
           y       0.0000      1.2021      0.0000
           z       0.0000      0.0000      1.2021
-------------------------------------------------------------------------------
   3 F     x      -0.8623      0.0000      0.0000
           y       0.0000     -0.8623      0.0000
           z       0.0000      0.0000     -0.7596
-------------------------------------------------------------------------------
   4 F     x      -0.7596      0.0000      0.0000
           y       0.0000     -0.8623      0.0000
           z       0.0000      0.0000     -0.8623
-------------------------------------------------------------------------------
   5 F     x      -0.8623      0.0000      0.0000
           y       0.0000     -0.7596      0.0000
           z       0.0000      0.0000     -0.8623
-------------------------------------------------------------------------------




  Elastic Constant Matrix: (Units=GPa)

-------------------------------------------------------------------------------
  Indices      1         2         3         4         5         6    
-------------------------------------------------------------------------------
       1    114.8077   27.8877   27.8877    0.0000    0.0000    0.0000
       2     27.8877  114.8077   27.8877    0.0000    0.0000    0.0000
       3     27.8877   27.8877  114.8077    0.0000    0.0000    0.0000
       4      0.0000    0.0000    0.0000   27.8877    0.0000    0.0000
       5      0.0000    0.0000    0.0000    0.0000   27.8877    0.0000
       6      0.0000    0.0000    0.0000    0.0000    0.0000   27.8877
-------------------------------------------------------------------------------


  Elastic Compliance Matrix: (Units=1/GPa)

-------------------------------------------------------------------------------
  Indices      1         2         3         4         5         6    
-------------------------------------------------------------------------------
       1    0.009624 -0.001881 -0.001881  0.000000  0.000000  0.000000
       2   -0.001881  0.009624 -0.001881  0.000000  0.000000  0.000000
       3   -0.001881 -0.001881  0.009624  0.000000  0.000000  0.000000
       4    0.000000  0.000000  0.000000  0.035858  0.000000  0.000000
       5    0.000000  0.000000  0.000000  0.000000  0.035858  0.000000
       6    0.000000  0.000000  0.000000  0.000000  0.000000  0.035858
-------------------------------------------------------------------------------

  Mechanical properties :

-------------------------------------------------------------------------------
  Convention :                    Reuss         Voigt         Hill
-------------------------------------------------------------------------------
  Bulk  Modulus (GPa)     =      56.86107      56.86107      56.86107
  Shear Modulus (GPa)     =      32.55347      34.11665      33.33506
-------------------------------------------------------------------------------
  Velocity S-wave (km/s)  =       2.98500       3.05583       3.02062
  Velocity P-wave (km/s)  =       5.23869       5.29285       5.26584
-------------------------------------------------------------------------------
  Compressibility (1/GPa) =    0.01758673
-------------------------------------------------------------------------------
  Stress axis :                     x             y             z
-------------------------------------------------------------------------------
  Youngs Moduli (GPa)     =     103.90726     103.90726     103.90726
-------------------------------------------------------------------------------
  Poissons Ratio (x)      =                     0.19544       0.19544
  Poissons Ratio (y)      =       0.19544                     0.19544
  Poissons Ratio (z)      =       0.19544       0.19544
-------------------------------------------------------------------------------


  Piezoelectric Strain Matrix: (Units=C/m**2)

-------------------------------------------------------------------------------
  Indices      1         2         3         4         5         6    
-------------------------------------------------------------------------------
       x     0.00000   0.00000   0.00000   0.00000   0.00000   0.00000
       y     0.00000   0.00000   0.00000   0.00000   0.00000   0.00000
       z     0.00000   0.00000   0.00000   0.00000   0.00000   0.00000
-------------------------------------------------------------------------------


  Piezoelectric Stress Matrix: (Units=10**-11 C/N)

-------------------------------------------------------------------------------
  Indices      1         2         3         4         5         6    
-------------------------------------------------------------------------------
       x     0.00000   0.00000   0.00000   0.00000   0.00000   0.00000
       y     0.00000   0.00000   0.00000   0.00000   0.00000   0.00000
       z     0.00000   0.00000   0.00000   0.00000   0.00000   0.00000
-------------------------------------------------------------------------------


  Static dielectric constant tensor : 

-------------------------------------------------------------------------------
              x         y         z
-------------------------------------------------------------------------------
       x    10.54843   0.00000   0.00000
       y     0.00000  10.54843   0.00000
       z     0.00000   0.00000  10.54843
--------------------------------------------------------------------------------

  High frequency dielectric constant tensor : 

-------------------------------------------------------------------------------
              x         y         z
-------------------------------------------------------------------------------
       x     1.56156   0.00000   0.00000
       y     0.00000   1.56156   0.00000
       z     0.00000   0.00000   1.56156
-------------------------------------------------------------------------------

  Static refractive indices : 

-------------------------------------------------------------------------------
    1 =    3.24783      2 =    3.24783      3 =    3.24783
-------------------------------------------------------------------------------

  High frequency refractive indices : 

-------------------------------------------------------------------------------
    1 =    1.24962      2 =    1.24962      3 =    1.24962
-------------------------------------------------------------------------------


  Time to end of optimisation =       0.0084 seconds


  Peak dynamic memory used =       0.50 MB 


  Timing analysis for GULP :

--------------------------------------------------------------------------------
  Task / Subroutine                                          Time (Seconds)
--------------------------------------------------------------------------------
  Calculation of reciprocal space energy and derivatives          0.0007
  Calculation of real space energy and derivatives                0.0049
--------------------------------------------------------------------------------
  Total CPU time                                                  0.0084
--------------------------------------------------------------------------------


  CIF file written as perov.cif                                               


  Job Finished at 14:36.50  7th December   2016                               

