********************************************************************************
*                       GENERAL UTILITY LATTICE PROGRAM                        *
*                                 Julian Gale                                  *
*                      Nanochemistry Research Institute                        *
*                           Department of Chemistry                            *
*                    Curtin University, Western Australia                      *
********************************************************************************
* Version = 4.3.2 * Last modified =  3rd March 2015                            *
********************************************************************************
*  optimise     - perform optimisation run                                     *
*  conp         - constant pressure calculation                                *
*  property     - calculate properties for final geometry                      *
********************************************************************************

  Job Started  at 14:36.49  7th December   2016                               

  Number of CPUs =     1


  Total number of configurations input =   1

********************************************************************************
*  Input for Configuration =   1                                               *
********************************************************************************

  Formula = KZnF3                                                       

  Number of irreducible atoms/shells =       8


  Total number atoms/shells =       8

  Dimensionality = 3               :  Bulk   



  Cartesian lattice vectors (Angstroms) :

        4.200000    0.000000    0.000000
        0.000000    4.200000    0.000000
        0.000000    0.000000    4.200000

  Cell parameters (Angstroms/Degrees):

  a =       4.2000    alpha =  90.0000
  b =       4.2000    beta  =  90.0000
  c =       4.2000    gamma =  90.0000

  Initial cell volume =          74.088000 Angs**3

  Temperature of configuration =  0.000     K 

  Pressure of configuration =         0.000 GPa 

  Fractional coordinates of asymmetric unit :

--------------------------------------------------------------------------------
   No.  Atomic       x           y          z         Charge      Occupancy
        Label      (Frac)      (Frac)     (Frac)        (e)         (Frac)  
--------------------------------------------------------------------------------
      1 K     c    0.000000    0.000000    0.000000     0.90000    1.000000    
      2 Zn    c    0.500000 *  0.500000 *  0.500000 *   1.50000    1.000000    
      3 F     c    0.500000 *  0.500000 *  0.000000 *   0.37800    1.000000    
      4 F     c    0.000000 *  0.500000 *  0.500000 *   0.37800    1.000000    
      5 F     c    0.500000 *  0.000000 *  0.500000 *   0.37800    1.000000    
      6 F     s    0.500000 *  0.500000 *  0.000000 *  -1.17800    1.000000    
      7 F     s    0.000000 *  0.500000 *  0.500000 *  -1.17800    1.000000    
      8 F     s    0.500000 *  0.000000 *  0.500000 *  -1.17800    1.000000    
--------------------------------------------------------------------------------



********************************************************************************
*  General input information                                                   *
********************************************************************************

  Species output for all configurations : 

--------------------------------------------------------------------------------
  Species    Type    Atomic    Atomic    Charge       Radii (Angs)     Library
                     Number     Mass       (e)     Cova   Ionic  VDW   Symbol
--------------------------------------------------------------------------------
    K        Core       19      39.10   0.900000   1.330  0.000  2.800          
    Zn       Core       30      65.39   1.500000   1.450  0.000  2.160          
    F        Core        9      19.00   0.378000   0.710  0.000  1.300          
    F        Shell       9       0.00  -1.178000   0.710  0.000  1.300          
--------------------------------------------------------------------------------


  Lattice summation method               =    Ewald          (3-D)
                                         =    Parry          (2-D)
                                         =    Saunders et al (1-D)
  Accuracy factor for lattice sums       =   12.000


  Time limit = Infinity

  Maximum range for interatomic potentials =    100000.000000 Angstroms

  General interatomic potentials :

--------------------------------------------------------------------------------
Atom  Types   Potential         A         B         C         D     Cutoffs(Ang)
  1     2                                                            Min    Max 
--------------------------------------------------------------------------------
K    c K    c Buckingham    0.219E+04 0.192      0.00      0.00     0.000 10.000
Zn   c F    s Buckingham    0.148E+04 0.266      0.00      0.00     0.000 10.000
F    s F    s Buckingham     912.     0.271      13.8      0.00     0.000 10.000
K    c F    s Buckingham    0.352E+04 0.267      0.00      0.00     0.000 10.000
F    c F    s Spring (c-s)   17.8      0.00      0.00      0.00     0.000  0.800
--------------------------------------------------------------------------------

********************************************************************************
*  Output for configuration   1                                                *
********************************************************************************


  Components of energy : 

--------------------------------------------------------------------------------
  Interatomic potentials     =           3.87670295 eV
  Monopole - monopole (real) =          -6.39113333 eV
  Monopole - monopole (recip)=         -19.87924700 eV
  Monopole - monopole (total)=         -26.27038032 eV
--------------------------------------------------------------------------------
  Total lattice energy       =         -22.39367737 eV
--------------------------------------------------------------------------------
  Total lattice energy       =           -2160.6475 kJ/(mole unit cells)
--------------------------------------------------------------------------------


  Number of variables =       27

  Maximum number of calculations  =          1000
  Maximum Hessian update interval =            10
  Maximum step size               =   1.000000000
  Maximum parameter tolerance     =   0.000010000
  Maximum function  tolerance     =   0.000010000
  Maximum gradient  tolerance     =   0.001000000
  Maximum gradient  component     =   0.010000000

  Symmetry not applied to optimisation

  Cell parameters to be optimised using strains

  Newton-Raphson optimiser to be used

  BFGS hessian update to be used

  Start of bulk optimisation :

  Cycle:      0 Energy:       -22.393677  Gnorm:      0.160147  CPU:    0.003
  ** Hessian calculated **
  Cycle:      1 Energy:       -22.522430  Gnorm:      0.004359  CPU:    0.005
  Cycle:      2 Energy:       -22.522545  Gnorm:      0.000006  CPU:    0.006


  **** Optimisation achieved ****


  Final energy =     -22.52254540 eV
  Final Gnorm  =       0.00000000

  Components of energy : 

--------------------------------------------------------------------------------
  Interatomic potentials     =           2.81409357 eV
  Monopole - monopole (real) =          -6.16397006 eV
  Monopole - monopole (recip)=         -19.17266891 eV
  Monopole - monopole (total)=         -25.33663897 eV
--------------------------------------------------------------------------------
  Total lattice energy       =         -22.52254540 eV
--------------------------------------------------------------------------------
  Total lattice energy       =           -2173.0813 kJ/(mole unit cells)
--------------------------------------------------------------------------------

  Final fractional coordinates of atoms :

--------------------------------------------------------------------------------
   No.  Atomic        x           y          z          Radius
        Label       (Frac)      (Frac)     (Frac)       (Angs) 
--------------------------------------------------------------------------------
     1  K     c     0.000000    0.000000    0.000000    0.000000
     2  Zn    c     0.500000    0.500000    0.500000    0.000000
     3  F     c     0.500000    0.500000    0.000000    0.000000
     4  F     c     0.000000    0.500000    0.500000    0.000000
     5  F     c     0.500000    1.000000    0.500000    0.000000
     6  F     s     0.500000    0.500000    0.000000    0.000000
     7  F     s     1.000000    0.500000    0.500000    0.000000
     8  F     s     0.500000    1.000000    0.500000    0.000000
--------------------------------------------------------------------------------

  Final Cartesian lattice vectors (Angstroms) :

        4.354784    0.000000    0.000000
        0.000000    4.354784    0.000000
        0.000000    0.000000    4.354784


  Final cell parameters and derivatives :

--------------------------------------------------------------------------------
       a            4.354784 Angstrom     dE/de1(xx)     0.000000 eV/strain
       b            4.354784 Angstrom     dE/de2(yy)     0.000000 eV/strain
       c            4.354784 Angstrom     dE/de3(zz)     0.000000 eV/strain
       alpha       90.000000 Degrees      dE/de4(yz)     0.000000 eV/strain
       beta        90.000000 Degrees      dE/de5(xz)     0.000000 eV/strain
       gamma       90.000000 Degrees      dE/de6(xy)     0.000000 eV/strain
--------------------------------------------------------------------------------

  Primitive cell volume =            82.584766 Angs**3

  Density of cell =      3.247145 g/cm**3

  Non-primitive cell volume =            82.584766 Angs**3


  Final internal derivatives :

--------------------------------------------------------------------------------
   No.  Atomic          a             b             c           Radius
        Label          (eV)          (eV)          (eV)        (eV/Angs)
--------------------------------------------------------------------------------
      1 K     c       0.000000      0.000000      0.000000      0.000000
      2 Zn    c       0.000000      0.000000      0.000000      0.000000
      3 F     c       0.000000      0.000000      0.000000      0.000000
      4 F     c       0.000000      0.000000      0.000000      0.000000
      5 F     c       0.000000      0.000000      0.000000      0.000000
      6 F     s       0.000000      0.000000      0.000000      0.000000
      7 F     s       0.000000      0.000000      0.000000      0.000000
      8 F     s       0.000000      0.000000      0.000000      0.000000
--------------------------------------------------------------------------------
  Maximum abs         0.000000      0.000000      0.000000      0.000000
--------------------------------------------------------------------------------


  Born effective charge tensors : 

-------------------------------------------------------------------------------
  Atom             x           y             z
-------------------------------------------------------------------------------
   1 K     x       0.9450      0.0000      0.0000
           y       0.0000      0.9450      0.0000
           z       0.0000      0.0000      0.9450
-------------------------------------------------------------------------------
   2 Zn    x       1.1758      0.0000      0.0000
           y       0.0000      1.1758      0.0000
           z       0.0000      0.0000      1.1758
-------------------------------------------------------------------------------
   3 F     x      -0.7231      0.0000      0.0000
           y       0.0000     -0.7231      0.0000
           z       0.0000      0.0000     -0.6746
-------------------------------------------------------------------------------
   4 F     x      -0.6746      0.0000      0.0000
           y       0.0000     -0.7231      0.0000
           z       0.0000      0.0000     -0.7231
-------------------------------------------------------------------------------
   5 F     x      -0.7231      0.0000      0.0000
           y       0.0000     -0.6746      0.0000
           z       0.0000      0.0000     -0.7231
-------------------------------------------------------------------------------




  Elastic Constant Matrix: (Units=GPa)

-------------------------------------------------------------------------------
  Indices      1         2         3         4         5         6    
-------------------------------------------------------------------------------
       1     78.6897   18.5487   18.5487    0.0000    0.0000    0.0000
       2     18.5487   78.6897   18.5487    0.0000    0.0000    0.0000
       3     18.5487   18.5487   78.6897    0.0000    0.0000    0.0000
       4      0.0000    0.0000    0.0000   18.5487    0.0000    0.0000
       5      0.0000    0.0000    0.0000    0.0000   18.5487    0.0000
       6      0.0000    0.0000    0.0000    0.0000    0.0000   18.5487
-------------------------------------------------------------------------------


  Elastic Compliance Matrix: (Units=1/GPa)

-------------------------------------------------------------------------------
  Indices      1         2         3         4         5         6    
-------------------------------------------------------------------------------
       1    0.013964 -0.002664 -0.002664  0.000000  0.000000  0.000000
       2   -0.002664  0.013964 -0.002664  0.000000  0.000000  0.000000
       3   -0.002664 -0.002664  0.013964  0.000000  0.000000  0.000000
       4    0.000000  0.000000  0.000000  0.053912  0.000000  0.000000
       5    0.000000  0.000000  0.000000  0.000000  0.053912  0.000000
       6    0.000000  0.000000  0.000000  0.000000  0.000000  0.053912
-------------------------------------------------------------------------------

  Mechanical properties :

-------------------------------------------------------------------------------
  Convention :                    Reuss         Voigt         Hill
-------------------------------------------------------------------------------
  Bulk  Modulus (GPa)     =      38.59570      38.59570      38.59570
  Shear Modulus (GPa)     =      21.90612      23.15742      22.53177
-------------------------------------------------------------------------------
  Velocity S-wave (km/s)  =       2.59736       2.67051       2.63419
  Velocity P-wave (km/s)  =       4.56958       4.62546       4.59761
-------------------------------------------------------------------------------
  Compressibility (1/GPa) =    0.02590962
-------------------------------------------------------------------------------
  Stress axis :                     x             y             z
-------------------------------------------------------------------------------
  Youngs Moduli (GPa)     =      71.61319      71.61319      71.61319
-------------------------------------------------------------------------------
  Poissons Ratio (x)      =                     0.19075       0.19075
  Poissons Ratio (y)      =       0.19075                     0.19075
  Poissons Ratio (z)      =       0.19075       0.19075
-------------------------------------------------------------------------------


  Piezoelectric Strain Matrix: (Units=C/m**2)

-------------------------------------------------------------------------------
  Indices      1         2         3         4         5         6    
-------------------------------------------------------------------------------
       x     0.00000   0.00000   0.00000   0.00000   0.00000   0.00000
       y     0.00000   0.00000   0.00000   0.00000   0.00000   0.00000
       z     0.00000   0.00000   0.00000   0.00000   0.00000   0.00000
-------------------------------------------------------------------------------


  Piezoelectric Stress Matrix: (Units=10**-11 C/N)

-------------------------------------------------------------------------------
  Indices      1         2         3         4         5         6    
-------------------------------------------------------------------------------
       x     0.00000   0.00000   0.00000   0.00000   0.00000   0.00000
       y     0.00000   0.00000   0.00000   0.00000   0.00000   0.00000
       z     0.00000   0.00000   0.00000   0.00000   0.00000   0.00000
-------------------------------------------------------------------------------


  Static dielectric constant tensor : 

-------------------------------------------------------------------------------
              x         y         z
-------------------------------------------------------------------------------
       x     6.38044   0.00000   0.00000
       y     0.00000   6.38044   0.00000
       z     0.00000   0.00000   6.38044
--------------------------------------------------------------------------------

  High frequency dielectric constant tensor : 

-------------------------------------------------------------------------------
              x         y         z
-------------------------------------------------------------------------------
       x     1.49971   0.00000   0.00000
       y     0.00000   1.49971   0.00000
       z     0.00000   0.00000   1.49971
-------------------------------------------------------------------------------

  Static refractive indices : 

-------------------------------------------------------------------------------
    1 =    2.52595      2 =    2.52595      3 =    2.52595
-------------------------------------------------------------------------------

  High frequency refractive indices : 

-------------------------------------------------------------------------------
    1 =    1.22463      2 =    1.22463      3 =    1.22463
-------------------------------------------------------------------------------


  Time to end of optimisation =       0.0098 seconds


  Peak dynamic memory used =       0.50 MB 


  Timing analysis for GULP :

--------------------------------------------------------------------------------
  Task / Subroutine                                          Time (Seconds)
--------------------------------------------------------------------------------
  Calculation of reciprocal space energy and derivatives          0.0009
  Calculation of real space energy and derivatives                0.0060
--------------------------------------------------------------------------------
  Total CPU time                                                  0.0098
--------------------------------------------------------------------------------


  CIF file written as perov.cif                                               


  Job Finished at 14:36.49  7th December   2016                               

