********************************************************************************
*                       GENERAL UTILITY LATTICE PROGRAM                        *
*                                 Julian Gale                                  *
*                      Nanochemistry Research Institute                        *
*                           Department of Chemistry                            *
*                    Curtin University, Western Australia                      *
********************************************************************************
* Version = 4.3.2 * Last modified =  3rd March 2015                            *
********************************************************************************
*  optimise     - perform optimisation run                                     *
*  conp         - constant pressure calculation                                *
*  property     - calculate properties for final geometry                      *
********************************************************************************

  Job Started  at 13:58.56 22nd February   2017                               

  Number of CPUs =     1


  Total number of configurations input =   1

********************************************************************************
*  Input for Configuration =   1                                               *
********************************************************************************

  Formula = KZnF3                                                       

  Number of irreducible atoms/shells =       8


  Total number atoms/shells =       8

  Dimensionality = 3               :  Bulk   



  Cartesian lattice vectors (Angstroms) :

        4.200000    0.000000    0.000000
        0.000000    4.200000    0.000000
        0.000000    0.000000    4.200000

  Cell parameters (Angstroms/Degrees):

  a =       4.2000    alpha =  90.0000
  b =       4.2000    beta  =  90.0000
  c =       4.2000    gamma =  90.0000

  Initial cell volume =          74.088000 Angs**3

  Temperature of configuration =  0.000     K 

  Pressure of configuration =         0.000 GPa 

  Fractional coordinates of asymmetric unit :

--------------------------------------------------------------------------------
   No.  Atomic       x           y          z         Charge      Occupancy
        Label      (Frac)      (Frac)     (Frac)        (e)         (Frac)  
--------------------------------------------------------------------------------
      1 K     c    0.000000    0.000000    0.000000     1.40000    1.000000    
      2 Zn    c    0.500000 *  0.500000 *  0.500000 *   2.30000    1.000000    
      3 F     c    0.500000 *  0.500000 *  0.000000 *   0.37800    1.000000    
      4 F     c    0.000000 *  0.500000 *  0.500000 *   0.37800    1.000000    
      5 F     c    0.500000 *  0.000000 *  0.500000 *   0.37800    1.000000    
      6 F     s    0.500000 *  0.500000 *  0.000000 *  -1.61133    1.000000    
      7 F     s    0.000000 *  0.500000 *  0.500000 *  -1.61133    1.000000    
      8 F     s    0.500000 *  0.000000 *  0.500000 *  -1.61133    1.000000    
--------------------------------------------------------------------------------



********************************************************************************
*  General input information                                                   *
********************************************************************************

  Species output for all configurations : 

--------------------------------------------------------------------------------
  Species    Type    Atomic    Atomic    Charge       Radii (Angs)     Library
                     Number     Mass       (e)     Cova   Ionic  VDW   Symbol
--------------------------------------------------------------------------------
    K        Core       19      39.10   1.400000   1.330  0.000  2.800          
    Zn       Core       30      65.39   2.300000   1.450  0.000  2.160          
    F        Core        9      19.00   0.378000   0.710  0.000  1.300          
    F        Shell       9       0.00  -1.611333   0.710  0.000  1.300          
--------------------------------------------------------------------------------


  Lattice summation method               =    Ewald          (3-D)
                                         =    Parry          (2-D)
                                         =    Saunders et al (1-D)
  Accuracy factor for lattice sums       =   12.000


  Time limit = Infinity

  Maximum range for interatomic potentials =    100000.000000 Angstroms

  General interatomic potentials :

--------------------------------------------------------------------------------
Atom  Types   Potential         A         B         C         D     Cutoffs(Ang)
  1     2                                                            Min    Max 
--------------------------------------------------------------------------------
K    c K    c Buckingham    0.219E+04 0.192      0.00      0.00     0.000 10.000
Zn   c F    s Buckingham    0.148E+04 0.266      0.00      0.00     0.000 10.000
F    s F    s Buckingham     912.     0.271      20.0      0.00     0.000 10.000
K    c F    s Buckingham    0.352E+04 0.267      0.00      0.00     0.000 10.000
F    c F    s Spring (c-s)   33.3      0.00      0.00      0.00     0.000  0.800
--------------------------------------------------------------------------------

********************************************************************************
*  Output for configuration   1                                                *
********************************************************************************


  Components of energy : 

--------------------------------------------------------------------------------
  Interatomic potentials     =           3.74293438 eV
  Monopole - monopole (real) =         -15.13156362 eV
  Monopole - monopole (recip)=         -47.14944426 eV
  Monopole - monopole (total)=         -62.28100788 eV
--------------------------------------------------------------------------------
  Total lattice energy       =         -58.53807350 eV
--------------------------------------------------------------------------------
  Total lattice energy       =           -5648.0293 kJ/(mole unit cells)
--------------------------------------------------------------------------------


  Number of variables =       27

  Maximum number of calculations  =          1000
  Maximum Hessian update interval =            10
  Maximum step size               =   1.000000000
  Maximum parameter tolerance     =   0.000010000
  Maximum function  tolerance     =   0.000010000
  Maximum gradient  tolerance     =   0.001000000
  Maximum gradient  component     =   0.010000000

  Symmetry not applied to optimisation

  Cell parameters to be optimised using strains

  Newton-Raphson optimiser to be used

  BFGS hessian update to be used

  Start of bulk optimisation :

  Cycle:      0 Energy:       -58.538074  Gnorm:      0.627043  CPU:    0.003
  ** Hessian calculated **
  Cycle:      1 Energy:       -60.074733  Gnorm:      0.171587  CPU:    0.004
  Cycle:      2 Energy:       -60.158540  Gnorm:      0.000039  CPU:    0.006


  **** Optimisation achieved ****


  Final energy =     -60.15853967 eV
  Final Gnorm  =       0.00000333

  Components of energy : 

--------------------------------------------------------------------------------
  Interatomic potentials     =           8.53772943 eV
  Monopole - monopole (real) =         -16.69019179 eV
  Monopole - monopole (recip)=         -52.00607731 eV
  Monopole - monopole (total)=         -68.69626909 eV
--------------------------------------------------------------------------------
  Total lattice energy       =         -60.15853967 eV
--------------------------------------------------------------------------------
  Total lattice energy       =           -5804.3795 kJ/(mole unit cells)
--------------------------------------------------------------------------------

  Final fractional coordinates of atoms :

--------------------------------------------------------------------------------
   No.  Atomic        x           y          z          Radius
        Label       (Frac)      (Frac)     (Frac)       (Angs) 
--------------------------------------------------------------------------------
     1  K     c     0.000000    0.000000    0.000000    0.000000
     2  Zn    c     0.500000    0.500000    0.500000    0.000000
     3  F     c     0.500000    0.500000    0.000000    0.000000
     4  F     c     0.000000    0.500000    0.500000    0.000000
     5  F     c     0.500000    0.000000    0.500000    0.000000
     6  F     s     0.500000    0.500000    0.000000    0.000000
     7  F     s     0.000000    0.500000    0.500000    0.000000
     8  F     s     0.500000    0.000000    0.500000    0.000000
--------------------------------------------------------------------------------

  Final Cartesian lattice vectors (Angstroms) :

        3.807779    0.000000    0.000000
        0.000000    3.807779    0.000000
        0.000000    0.000000    3.807779


  Final cell parameters and derivatives :

--------------------------------------------------------------------------------
       a            3.807779 Angstrom     dE/de1(xx)     0.000052 eV/strain
       b            3.807779 Angstrom     dE/de2(yy)     0.000052 eV/strain
       c            3.807779 Angstrom     dE/de3(zz)     0.000052 eV/strain
       alpha       90.000000 Degrees      dE/de4(yz)     0.000000 eV/strain
       beta        90.000000 Degrees      dE/de5(xz)     0.000000 eV/strain
       gamma       90.000000 Degrees      dE/de6(xy)     0.000000 eV/strain
--------------------------------------------------------------------------------

  Primitive cell volume =            55.209691 Angs**3

  Density of cell =      4.857204 g/cm**3

  Non-primitive cell volume =            55.209691 Angs**3


  Final internal derivatives :

--------------------------------------------------------------------------------
   No.  Atomic          a             b             c           Radius
        Label          (eV)          (eV)          (eV)        (eV/Angs)
--------------------------------------------------------------------------------
      1 K     c       0.000000      0.000000      0.000000      0.000000
      2 Zn    c       0.000000      0.000000      0.000000      0.000000
      3 F     c       0.000000      0.000000      0.000000      0.000000
      4 F     c       0.000000      0.000000      0.000000      0.000000
      5 F     c       0.000000      0.000000      0.000000      0.000000
      6 F     s       0.000000      0.000000      0.000000      0.000000
      7 F     s       0.000000      0.000000      0.000000      0.000000
      8 F     s       0.000000      0.000000      0.000000      0.000000
--------------------------------------------------------------------------------
  Maximum abs         0.000000      0.000000      0.000000      0.000000
--------------------------------------------------------------------------------


  Born effective charge tensors : 

-------------------------------------------------------------------------------
  Atom             x           y             z
-------------------------------------------------------------------------------
   1 K     x       1.4247      0.0000      0.0000
           y       0.0000      1.4247      0.0000
           z       0.0000      0.0000      1.4247
-------------------------------------------------------------------------------
   2 Zn    x       1.7831      0.0000      0.0000
           y       0.0000      1.7831      0.0000
           z       0.0000      0.0000      1.7831
-------------------------------------------------------------------------------
   3 F     x      -1.0489      0.0000      0.0000
           y       0.0000     -1.0489      0.0000
           z       0.0000      0.0000     -1.1100
-------------------------------------------------------------------------------
   4 F     x      -1.1100      0.0000      0.0000
           y       0.0000     -1.0489      0.0000
           z       0.0000      0.0000     -1.0489
-------------------------------------------------------------------------------
   5 F     x      -1.0489      0.0000      0.0000
           y       0.0000     -1.1100      0.0000
           z       0.0000      0.0000     -1.0489
-------------------------------------------------------------------------------




  Elastic Constant Matrix: (Units=GPa)

-------------------------------------------------------------------------------
  Indices      1         2         3         4         5         6    
-------------------------------------------------------------------------------
       1    240.2349   84.4986   84.4986    0.0000    0.0000    0.0000
       2     84.4986  240.2349   84.4986    0.0000    0.0000    0.0000
       3     84.4986   84.4986  240.2349    0.0000    0.0000    0.0000
       4      0.0000    0.0000    0.0000   84.4987    0.0000    0.0000
       5      0.0000    0.0000    0.0000    0.0000   84.4987    0.0000
       6      0.0000    0.0000    0.0000    0.0000    0.0000   84.4987
-------------------------------------------------------------------------------


  Elastic Compliance Matrix: (Units=1/GPa)

-------------------------------------------------------------------------------
  Indices      1         2         3         4         5         6    
-------------------------------------------------------------------------------
       1    0.005095 -0.001326 -0.001326  0.000000  0.000000  0.000000
       2   -0.001326  0.005095 -0.001326  0.000000  0.000000  0.000000
       3   -0.001326 -0.001326  0.005095  0.000000  0.000000  0.000000
       4    0.000000  0.000000  0.000000  0.011834  0.000000  0.000000
       5    0.000000  0.000000  0.000000  0.000000  0.011834  0.000000
       6    0.000000  0.000000  0.000000  0.000000  0.000000  0.011834
-------------------------------------------------------------------------------

  Mechanical properties :

-------------------------------------------------------------------------------
  Convention :                    Reuss         Voigt         Hill
-------------------------------------------------------------------------------
  Bulk  Modulus (GPa)     =     136.41070     136.41070     136.41070
  Shear Modulus (GPa)     =      81.71547      81.84651      81.78099
-------------------------------------------------------------------------------
  Velocity S-wave (km/s)  =       4.10165       4.10494       4.10330
  Velocity P-wave (km/s)  =       7.10743       7.10996       7.10870
-------------------------------------------------------------------------------
  Compressibility (1/GPa) =    0.00733080
-------------------------------------------------------------------------------
  Stress axis :                     x             y             z
-------------------------------------------------------------------------------
  Youngs Moduli (GPa)     =     196.26036     196.26036     196.26036
-------------------------------------------------------------------------------
  Poissons Ratio (x)      =                     0.26021       0.26021
  Poissons Ratio (y)      =       0.26021                     0.26021
  Poissons Ratio (z)      =       0.26021       0.26021
-------------------------------------------------------------------------------


  Piezoelectric Strain Matrix: (Units=C/m**2)

-------------------------------------------------------------------------------
  Indices      1         2         3         4         5         6    
-------------------------------------------------------------------------------
       x     0.00000   0.00000   0.00000   0.00000   0.00000   0.00000
       y     0.00000   0.00000   0.00000   0.00000   0.00000   0.00000
       z     0.00000   0.00000   0.00000   0.00000   0.00000   0.00000
-------------------------------------------------------------------------------


  Piezoelectric Stress Matrix: (Units=10**-11 C/N)

-------------------------------------------------------------------------------
  Indices      1         2         3         4         5         6    
-------------------------------------------------------------------------------
       x     0.00000   0.00000   0.00000   0.00000   0.00000   0.00000
       y     0.00000   0.00000   0.00000   0.00000   0.00000   0.00000
       z     0.00000   0.00000   0.00000   0.00000   0.00000   0.00000
-------------------------------------------------------------------------------


  Static dielectric constant tensor : 

-------------------------------------------------------------------------------
              x         y         z
-------------------------------------------------------------------------------
       x     5.49831   0.00000   0.00000
       y     0.00000   5.49831   0.00000
       z     0.00000   0.00000   5.49831
--------------------------------------------------------------------------------

  High frequency dielectric constant tensor : 

-------------------------------------------------------------------------------
              x         y         z
-------------------------------------------------------------------------------
       x     1.73386   0.00000   0.00000
       y     0.00000   1.73386   0.00000
       z     0.00000   0.00000   1.73386
-------------------------------------------------------------------------------

  Static refractive indices : 

-------------------------------------------------------------------------------
    1 =    2.34485      2 =    2.34485      3 =    2.34485
-------------------------------------------------------------------------------

  High frequency refractive indices : 

-------------------------------------------------------------------------------
    1 =    1.31676      2 =    1.31676      3 =    1.31676
-------------------------------------------------------------------------------


  Time to end of optimisation =       0.0102 seconds


  Peak dynamic memory used =       0.50 MB 


  Timing analysis for GULP :

--------------------------------------------------------------------------------
  Task / Subroutine                                          Time (Seconds)
--------------------------------------------------------------------------------
  Calculation of reciprocal space energy and derivatives          0.0009
  Calculation of real space energy and derivatives                0.0065
--------------------------------------------------------------------------------
  Total CPU time                                                  0.0102
--------------------------------------------------------------------------------


  CIF file written as perov.cif                                               


  Job Finished at 13:58.56 22nd February   2017                               

