********************************************************************************
*                       GENERAL UTILITY LATTICE PROGRAM                        *
*                                 Julian Gale                                  *
*                      Nanochemistry Research Institute                        *
*                           Department of Chemistry                            *
*                    Curtin University, Western Australia                      *
********************************************************************************
* Version = 4.3.2 * Last modified =  3rd March 2015                            *
********************************************************************************
*  optimise     - perform optimisation run                                     *
*  conp         - constant pressure calculation                                *
*  property     - calculate properties for final geometry                      *
********************************************************************************

  Job Started  at 13:58.56 22nd February   2017                               

  Number of CPUs =     1


  Total number of configurations input =   1

********************************************************************************
*  Input for Configuration =   1                                               *
********************************************************************************

  Formula = KZnF3                                                       

  Number of irreducible atoms/shells =       8


  Total number atoms/shells =       8

  Dimensionality = 3               :  Bulk   



  Cartesian lattice vectors (Angstroms) :

        4.200000    0.000000    0.000000
        0.000000    4.200000    0.000000
        0.000000    0.000000    4.200000

  Cell parameters (Angstroms/Degrees):

  a =       4.2000    alpha =  90.0000
  b =       4.2000    beta  =  90.0000
  c =       4.2000    gamma =  90.0000

  Initial cell volume =          74.088000 Angs**3

  Temperature of configuration =  0.000     K 

  Pressure of configuration =         0.000 GPa 

  Fractional coordinates of asymmetric unit :

--------------------------------------------------------------------------------
   No.  Atomic       x           y          z         Charge      Occupancy
        Label      (Frac)      (Frac)     (Frac)        (e)         (Frac)  
--------------------------------------------------------------------------------
      1 K     c    0.000000    0.000000    0.000000     1.40000    1.000000    
      2 Zn    c    0.500000 *  0.500000 *  0.500000 *   2.50000    1.000000    
      3 F     c    0.500000 *  0.500000 *  0.000000 *   0.37800    1.000000    
      4 F     c    0.000000 *  0.500000 *  0.500000 *   0.37800    1.000000    
      5 F     c    0.500000 *  0.000000 *  0.500000 *   0.37800    1.000000    
      6 F     s    0.500000 *  0.500000 *  0.000000 *  -1.67800    1.000000    
      7 F     s    0.000000 *  0.500000 *  0.500000 *  -1.67800    1.000000    
      8 F     s    0.500000 *  0.000000 *  0.500000 *  -1.67800    1.000000    
--------------------------------------------------------------------------------



********************************************************************************
*  General input information                                                   *
********************************************************************************

  Species output for all configurations : 

--------------------------------------------------------------------------------
  Species    Type    Atomic    Atomic    Charge       Radii (Angs)     Library
                     Number     Mass       (e)     Cova   Ionic  VDW   Symbol
--------------------------------------------------------------------------------
    K        Core       19      39.10   1.400000   1.330  0.000  2.800          
    Zn       Core       30      65.39   2.500000   1.450  0.000  2.160          
    F        Core        9      19.00   0.378000   0.710  0.000  1.300          
    F        Shell       9       0.00  -1.678000   0.710  0.000  1.300          
--------------------------------------------------------------------------------


  Lattice summation method               =    Ewald          (3-D)
                                         =    Parry          (2-D)
                                         =    Saunders et al (1-D)
  Accuracy factor for lattice sums       =   12.000


  Time limit = Infinity

  Maximum range for interatomic potentials =    100000.000000 Angstroms

  General interatomic potentials :

--------------------------------------------------------------------------------
Atom  Types   Potential         A         B         C         D     Cutoffs(Ang)
  1     2                                                            Min    Max 
--------------------------------------------------------------------------------
K    c K    c Buckingham    0.219E+04 0.192      0.00      0.00     0.000 10.000
Zn   c F    s Buckingham    0.148E+04 0.266      0.00      0.00     0.000 10.000
F    s F    s Buckingham     912.     0.271      20.0      0.00     0.000 10.000
K    c F    s Buckingham    0.352E+04 0.267      0.00      0.00     0.000 10.000
F    c F    s Spring (c-s)   36.1      0.00      0.00      0.00     0.000  0.800
--------------------------------------------------------------------------------

********************************************************************************
*  Output for configuration   1                                                *
********************************************************************************


  Components of energy : 

--------------------------------------------------------------------------------
  Interatomic potentials     =           3.74293438 eV
  Monopole - monopole (real) =         -17.18594946 eV
  Monopole - monopole (recip)=         -53.04341322 eV
  Monopole - monopole (total)=         -70.22936268 eV
--------------------------------------------------------------------------------
  Total lattice energy       =         -66.48642830 eV
--------------------------------------------------------------------------------
  Total lattice energy       =           -6414.9240 kJ/(mole unit cells)
--------------------------------------------------------------------------------


  Number of variables =       27

  Maximum number of calculations  =          1000
  Maximum Hessian update interval =            10
  Maximum step size               =   1.000000000
  Maximum parameter tolerance     =   0.000010000
  Maximum function  tolerance     =   0.000010000
  Maximum gradient  tolerance     =   0.001000000
  Maximum gradient  component     =   0.010000000

  Symmetry not applied to optimisation

  Cell parameters to be optimised using strains

  Newton-Raphson optimiser to be used

  BFGS hessian update to be used

  Start of bulk optimisation :

  Cycle:      0 Energy:       -66.486428  Gnorm:      0.797005  CPU:    0.003
  ** Hessian calculated **
  Cycle:      1 Energy:       -68.971768  Gnorm:      0.131490  CPU:    0.005
  Cycle:      2 Energy:       -68.996851  Gnorm:      0.088212  CPU:    0.006
  Cycle:      3 Energy:       -69.014031  Gnorm:      0.000089  CPU:    0.008


  **** Optimisation achieved ****


  Final energy =     -69.01403101 eV
  Final Gnorm  =       0.00000000

  Components of energy : 

--------------------------------------------------------------------------------
  Interatomic potentials     =           9.99135065 eV
  Monopole - monopole (real) =         -19.33354432 eV
  Monopole - monopole (recip)=         -59.67183734 eV
  Monopole - monopole (total)=         -79.00538166 eV
--------------------------------------------------------------------------------
  Total lattice energy       =         -69.01403101 eV
--------------------------------------------------------------------------------
  Total lattice energy       =           -6658.7990 kJ/(mole unit cells)
--------------------------------------------------------------------------------

  Final fractional coordinates of atoms :

--------------------------------------------------------------------------------
   No.  Atomic        x           y          z          Radius
        Label       (Frac)      (Frac)     (Frac)       (Angs) 
--------------------------------------------------------------------------------
     1  K     c     0.000000    0.000000    0.000000    0.000000
     2  Zn    c     0.500000    0.500000    0.500000    0.000000
     3  F     c     0.500000    0.500000    1.000000    0.000000
     4  F     c     1.000000    0.500000    0.500000    0.000000
     5  F     c     0.500000    1.000000    0.500000    0.000000
     6  F     s     0.500000    0.500000    1.000000    0.000000
     7  F     s     1.000000    0.500000    0.500000    0.000000
     8  F     s     0.500000    1.000000    0.500000    0.000000
--------------------------------------------------------------------------------

  Final Cartesian lattice vectors (Angstroms) :

        3.733459    0.000000    0.000000
        0.000000    3.733459    0.000000
        0.000000    0.000000    3.733459


  Final cell parameters and derivatives :

--------------------------------------------------------------------------------
       a            3.733459 Angstrom     dE/de1(xx)     0.000000 eV/strain
       b            3.733459 Angstrom     dE/de2(yy)     0.000000 eV/strain
       c            3.733459 Angstrom     dE/de3(zz)     0.000000 eV/strain
       alpha       90.000000 Degrees      dE/de4(yz)     0.000000 eV/strain
       beta        90.000000 Degrees      dE/de5(xz)     0.000000 eV/strain
       gamma       90.000000 Degrees      dE/de6(xy)     0.000000 eV/strain
--------------------------------------------------------------------------------

  Primitive cell volume =            52.039609 Angs**3

  Density of cell =      5.153089 g/cm**3

  Non-primitive cell volume =            52.039609 Angs**3


  Final internal derivatives :

--------------------------------------------------------------------------------
   No.  Atomic          a             b             c           Radius
        Label          (eV)          (eV)          (eV)        (eV/Angs)
--------------------------------------------------------------------------------
      1 K     c       0.000000      0.000000      0.000000      0.000000
      2 Zn    c       0.000000      0.000000      0.000000      0.000000
      3 F     c       0.000000      0.000000      0.000000      0.000000
      4 F     c       0.000000      0.000000      0.000000      0.000000
      5 F     c       0.000000      0.000000      0.000000      0.000000
      6 F     s       0.000000      0.000000      0.000000      0.000000
      7 F     s       0.000000      0.000000      0.000000      0.000000
      8 F     s       0.000000      0.000000      0.000000      0.000000
--------------------------------------------------------------------------------
  Maximum abs         0.000000      0.000000      0.000000      0.000000
--------------------------------------------------------------------------------


  Born effective charge tensors : 

-------------------------------------------------------------------------------
  Atom             x           y             z
-------------------------------------------------------------------------------
   1 K     x       1.3916      0.0000      0.0000
           y       0.0000      1.3916      0.0000
           z       0.0000      0.0000      1.3916
-------------------------------------------------------------------------------
   2 Zn    x       1.9865      0.0000      0.0000
           y       0.0000      1.9865      0.0000
           z       0.0000      0.0000      1.9865
-------------------------------------------------------------------------------
   3 F     x      -1.0764      0.0000      0.0000
           y       0.0000     -1.0764      0.0000
           z       0.0000      0.0000     -1.2254
-------------------------------------------------------------------------------
   4 F     x      -1.2254      0.0000      0.0000
           y       0.0000     -1.0764      0.0000
           z       0.0000      0.0000     -1.0764
-------------------------------------------------------------------------------
   5 F     x      -1.0764      0.0000      0.0000
           y       0.0000     -1.2254      0.0000
           z       0.0000      0.0000     -1.0764
-------------------------------------------------------------------------------




  Elastic Constant Matrix: (Units=GPa)

-------------------------------------------------------------------------------
  Indices      1         2         3         4         5         6    
-------------------------------------------------------------------------------
       1    276.0563  106.4060  106.4060    0.0000    0.0000    0.0000
       2    106.4060  276.0563  106.4060    0.0000    0.0000    0.0000
       3    106.4060  106.4060  276.0563    0.0000    0.0000    0.0000
       4      0.0000    0.0000    0.0000  106.4060    0.0000    0.0000
       5      0.0000    0.0000    0.0000    0.0000  106.4060    0.0000
       6      0.0000    0.0000    0.0000    0.0000    0.0000  106.4060
-------------------------------------------------------------------------------


  Elastic Compliance Matrix: (Units=1/GPa)

-------------------------------------------------------------------------------
  Indices      1         2         3         4         5         6    
-------------------------------------------------------------------------------
       1    0.004612 -0.001283 -0.001283  0.000000  0.000000  0.000000
       2   -0.001283  0.004612 -0.001283  0.000000  0.000000  0.000000
       3   -0.001283 -0.001283  0.004612  0.000000  0.000000  0.000000
       4    0.000000  0.000000  0.000000  0.009398  0.000000  0.000000
       5    0.000000  0.000000  0.000000  0.000000  0.009398  0.000000
       6    0.000000  0.000000  0.000000  0.000000  0.000000  0.009398
-------------------------------------------------------------------------------

  Mechanical properties :

-------------------------------------------------------------------------------
  Convention :                    Reuss         Voigt         Hill
-------------------------------------------------------------------------------
  Bulk  Modulus (GPa)     =     162.95608     162.95608     162.95608
  Shear Modulus (GPa)     =      96.57764      97.77365      97.17564
-------------------------------------------------------------------------------
  Velocity S-wave (km/s)  =       4.32917       4.35589       4.34255
  Velocity P-wave (km/s)  =       7.52409       7.54463       7.53437
-------------------------------------------------------------------------------
  Compressibility (1/GPa) =    0.00613662
-------------------------------------------------------------------------------
  Stress axis :                     x             y             z
-------------------------------------------------------------------------------
  Youngs Moduli (GPa)     =     216.84917     216.84917     216.84917
-------------------------------------------------------------------------------
  Poissons Ratio (x)      =                     0.27821       0.27821
  Poissons Ratio (y)      =       0.27821                     0.27821
  Poissons Ratio (z)      =       0.27821       0.27821
-------------------------------------------------------------------------------


  Piezoelectric Strain Matrix: (Units=C/m**2)

-------------------------------------------------------------------------------
  Indices      1         2         3         4         5         6    
-------------------------------------------------------------------------------
       x     0.00000   0.00000   0.00000   0.00000   0.00000   0.00000
       y     0.00000   0.00000   0.00000   0.00000   0.00000   0.00000
       z     0.00000   0.00000   0.00000   0.00000   0.00000   0.00000
-------------------------------------------------------------------------------


  Piezoelectric Stress Matrix: (Units=10**-11 C/N)

-------------------------------------------------------------------------------
  Indices      1         2         3         4         5         6    
-------------------------------------------------------------------------------
       x     0.00000   0.00000   0.00000   0.00000   0.00000   0.00000
       y     0.00000   0.00000   0.00000   0.00000   0.00000   0.00000
       z     0.00000   0.00000   0.00000   0.00000   0.00000   0.00000
-------------------------------------------------------------------------------


  Static dielectric constant tensor : 

-------------------------------------------------------------------------------
              x         y         z
-------------------------------------------------------------------------------
       x     5.09097   0.00000   0.00000
       y     0.00000   5.09097   0.00000
       z     0.00000   0.00000   5.09097
--------------------------------------------------------------------------------

  High frequency dielectric constant tensor : 

-------------------------------------------------------------------------------
              x         y         z
-------------------------------------------------------------------------------
       x     1.77852   0.00000   0.00000
       y     0.00000   1.77852   0.00000
       z     0.00000   0.00000   1.77852
-------------------------------------------------------------------------------

  Static refractive indices : 

-------------------------------------------------------------------------------
    1 =    2.25632      2 =    2.25632      3 =    2.25632
-------------------------------------------------------------------------------

  High frequency refractive indices : 

-------------------------------------------------------------------------------
    1 =    1.33361      2 =    1.33361      3 =    1.33361
-------------------------------------------------------------------------------


  Time to end of optimisation =       0.0115 seconds


  Peak dynamic memory used =       0.50 MB 


  Timing analysis for GULP :

--------------------------------------------------------------------------------
  Task / Subroutine                                          Time (Seconds)
--------------------------------------------------------------------------------
  Calculation of reciprocal space energy and derivatives          0.0011
  Calculation of real space energy and derivatives                0.0076
--------------------------------------------------------------------------------
  Total CPU time                                                  0.0116
--------------------------------------------------------------------------------


  CIF file written as perov.cif                                               


  Job Finished at 13:58.56 22nd February   2017                               

