********************************************************************************
*                       GENERAL UTILITY LATTICE PROGRAM                        *
*                                 Julian Gale                                  *
*                      Nanochemistry Research Institute                        *
*                           Department of Chemistry                            *
*                    Curtin University, Western Australia                      *
********************************************************************************
* Version = 4.3.2 * Last modified =  3rd March 2015                            *
********************************************************************************
*  optimise     - perform optimisation run                                     *
*  conp         - constant pressure calculation                                *
*  property     - calculate properties for final geometry                      *
********************************************************************************

  Job Started  at 13:58.56 22nd February   2017                               

  Number of CPUs =     1


  Total number of configurations input =   1

********************************************************************************
*  Input for Configuration =   1                                               *
********************************************************************************

  Formula = KZnF3                                                       

  Number of irreducible atoms/shells =       8


  Total number atoms/shells =       8

  Dimensionality = 3               :  Bulk   



  Cartesian lattice vectors (Angstroms) :

        4.200000    0.000000    0.000000
        0.000000    4.200000    0.000000
        0.000000    0.000000    4.200000

  Cell parameters (Angstroms/Degrees):

  a =       4.2000    alpha =  90.0000
  b =       4.2000    beta  =  90.0000
  c =       4.2000    gamma =  90.0000

  Initial cell volume =          74.088000 Angs**3

  Temperature of configuration =  0.000     K 

  Pressure of configuration =         0.000 GPa 

  Fractional coordinates of asymmetric unit :

--------------------------------------------------------------------------------
   No.  Atomic       x           y          z         Charge      Occupancy
        Label      (Frac)      (Frac)     (Frac)        (e)         (Frac)  
--------------------------------------------------------------------------------
      1 K     c    0.000000    0.000000    0.000000     1.30000    1.000000    
      2 Zn    c    0.500000 *  0.500000 *  0.500000 *   2.50000    1.000000    
      3 F     c    0.500000 *  0.500000 *  0.000000 *   0.37800    1.000000    
      4 F     c    0.000000 *  0.500000 *  0.500000 *   0.37800    1.000000    
      5 F     c    0.500000 *  0.000000 *  0.500000 *   0.37800    1.000000    
      6 F     s    0.500000 *  0.500000 *  0.000000 *  -1.64467    1.000000    
      7 F     s    0.000000 *  0.500000 *  0.500000 *  -1.64467    1.000000    
      8 F     s    0.500000 *  0.000000 *  0.500000 *  -1.64467    1.000000    
--------------------------------------------------------------------------------



********************************************************************************
*  General input information                                                   *
********************************************************************************

  Species output for all configurations : 

--------------------------------------------------------------------------------
  Species    Type    Atomic    Atomic    Charge       Radii (Angs)     Library
                     Number     Mass       (e)     Cova   Ionic  VDW   Symbol
--------------------------------------------------------------------------------
    K        Core       19      39.10   1.300000   1.330  0.000  2.800          
    Zn       Core       30      65.39   2.500000   1.450  0.000  2.160          
    F        Core        9      19.00   0.378000   0.710  0.000  1.300          
    F        Shell       9       0.00  -1.644667   0.710  0.000  1.300          
--------------------------------------------------------------------------------


  Lattice summation method               =    Ewald          (3-D)
                                         =    Parry          (2-D)
                                         =    Saunders et al (1-D)
  Accuracy factor for lattice sums       =   12.000


  Time limit = Infinity

  Maximum range for interatomic potentials =    100000.000000 Angstroms

  General interatomic potentials :

--------------------------------------------------------------------------------
Atom  Types   Potential         A         B         C         D     Cutoffs(Ang)
  1     2                                                            Min    Max 
--------------------------------------------------------------------------------
K    c K    c Buckingham    0.219E+04 0.192      0.00      0.00     0.000 10.000
Zn   c F    s Buckingham    0.148E+04 0.266      0.00      0.00     0.000 10.000
F    s F    s Buckingham     912.     0.271      20.0      0.00     0.000 10.000
K    c F    s Buckingham    0.352E+04 0.267      0.00      0.00     0.000 10.000
F    c F    s Spring (c-s)   34.7      0.00      0.00      0.00     0.000  0.800
--------------------------------------------------------------------------------

********************************************************************************
*  Output for configuration   1                                                *
********************************************************************************


  Components of energy : 

--------------------------------------------------------------------------------
  Interatomic potentials     =           3.74293438 eV
  Monopole - monopole (real) =         -16.62709437 eV
  Monopole - monopole (recip)=         -50.96142604 eV
  Monopole - monopole (total)=         -67.58852042 eV
--------------------------------------------------------------------------------
  Total lattice energy       =         -63.84558604 eV
--------------------------------------------------------------------------------
  Total lattice energy       =           -6160.1231 kJ/(mole unit cells)
--------------------------------------------------------------------------------


  Number of variables =       27

  Maximum number of calculations  =          1000
  Maximum Hessian update interval =            10
  Maximum step size               =   1.000000000
  Maximum parameter tolerance     =   0.000010000
  Maximum function  tolerance     =   0.000010000
  Maximum gradient  tolerance     =   0.001000000
  Maximum gradient  component     =   0.010000000

  Symmetry not applied to optimisation

  Cell parameters to be optimised using strains

  Newton-Raphson optimiser to be used

  BFGS hessian update to be used

  Start of bulk optimisation :

  Cycle:      0 Energy:       -63.845586  Gnorm:      0.740535  CPU:    0.003
  ** Hessian calculated **
  Cycle:      1 Energy:       -65.993524  Gnorm:      0.151419  CPU:    0.004
  Cycle:      2 Energy:       -66.052513  Gnorm:      0.002168  CPU:    0.007
  Cycle:      3 Energy:       -66.052525  Gnorm:      0.000147  CPU:    0.008


  **** Optimisation achieved ****


  Final energy =     -66.05252463 eV
  Final Gnorm  =       0.00000013

  Components of energy : 

--------------------------------------------------------------------------------
  Interatomic potentials     =           9.50182914 eV
  Monopole - monopole (real) =         -18.58672690 eV
  Monopole - monopole (recip)=         -56.96762687 eV
  Monopole - monopole (total)=         -75.55435377 eV
--------------------------------------------------------------------------------
  Total lattice energy       =         -66.05252463 eV
--------------------------------------------------------------------------------
  Total lattice energy       =           -6373.0589 kJ/(mole unit cells)
--------------------------------------------------------------------------------

  Final fractional coordinates of atoms :

--------------------------------------------------------------------------------
   No.  Atomic        x           y          z          Radius
        Label       (Frac)      (Frac)     (Frac)       (Angs) 
--------------------------------------------------------------------------------
     1  K     c     0.000000    0.000000    0.000000    0.000000
     2  Zn    c     0.500000    0.500000    0.500000    0.000000
     3  F     c     0.500000    0.500000    1.000000    0.000000
     4  F     c     1.000000    0.500000    0.500000    0.000000
     5  F     c     0.500000    1.000000    0.500000    0.000000
     6  F     s     0.500000    0.500000    1.000000    0.000000
     7  F     s     1.000000    0.500000    0.500000    0.000000
     8  F     s     0.500000    1.000000    0.500000    0.000000
--------------------------------------------------------------------------------

  Final Cartesian lattice vectors (Angstroms) :

        3.757186    0.000000    0.000000
        0.000000    3.757186    0.000000
        0.000000    0.000000    3.757186


  Final cell parameters and derivatives :

--------------------------------------------------------------------------------
       a            3.757186 Angstrom     dE/de1(xx)     0.000002 eV/strain
       b            3.757186 Angstrom     dE/de2(yy)     0.000002 eV/strain
       c            3.757186 Angstrom     dE/de3(zz)     0.000002 eV/strain
       alpha       90.000000 Degrees      dE/de4(yz)     0.000000 eV/strain
       beta        90.000000 Degrees      dE/de5(xz)     0.000000 eV/strain
       gamma       90.000000 Degrees      dE/de6(xy)     0.000000 eV/strain
--------------------------------------------------------------------------------

  Primitive cell volume =            53.038130 Angs**3

  Density of cell =      5.056074 g/cm**3

  Non-primitive cell volume =            53.038130 Angs**3


  Final internal derivatives :

--------------------------------------------------------------------------------
   No.  Atomic          a             b             c           Radius
        Label          (eV)          (eV)          (eV)        (eV/Angs)
--------------------------------------------------------------------------------
      1 K     c       0.000000      0.000000      0.000000      0.000000
      2 Zn    c       0.000000      0.000000      0.000000      0.000000
      3 F     c       0.000000      0.000000      0.000000      0.000000
      4 F     c       0.000000      0.000000      0.000000      0.000000
      5 F     c       0.000000      0.000000      0.000000      0.000000
      6 F     s       0.000000      0.000000      0.000000      0.000000
      7 F     s       0.000000      0.000000      0.000000      0.000000
      8 F     s       0.000000      0.000000      0.000000      0.000000
--------------------------------------------------------------------------------
  Maximum abs         0.000000      0.000000      0.000000      0.000000
--------------------------------------------------------------------------------


  Born effective charge tensors : 

-------------------------------------------------------------------------------
  Atom             x           y             z
-------------------------------------------------------------------------------
   1 K     x       1.2751      0.0000      0.0000
           y       0.0000      1.2751      0.0000
           z       0.0000      0.0000      1.2751
-------------------------------------------------------------------------------
   2 Zn    x       2.0057      0.0000      0.0000
           y       0.0000      2.0057      0.0000
           z       0.0000      0.0000      2.0057
-------------------------------------------------------------------------------
   3 F     x      -1.0370      0.0000      0.0000
           y       0.0000     -1.0370      0.0000
           z       0.0000      0.0000     -1.2069
-------------------------------------------------------------------------------
   4 F     x      -1.2069      0.0000      0.0000
           y       0.0000     -1.0370      0.0000
           z       0.0000      0.0000     -1.0370
-------------------------------------------------------------------------------
   5 F     x      -1.0370      0.0000      0.0000
           y       0.0000     -1.2069      0.0000
           z       0.0000      0.0000     -1.0370
-------------------------------------------------------------------------------




  Elastic Constant Matrix: (Units=GPa)

-------------------------------------------------------------------------------
  Indices      1         2         3         4         5         6    
-------------------------------------------------------------------------------
       1    261.1419  100.3495  100.3495    0.0000    0.0000    0.0000
       2    100.3495  261.1419  100.3495    0.0000    0.0000    0.0000
       3    100.3495  100.3495  261.1419    0.0000    0.0000    0.0000
       4      0.0000    0.0000    0.0000  100.3495    0.0000    0.0000
       5      0.0000    0.0000    0.0000    0.0000  100.3495    0.0000
       6      0.0000    0.0000    0.0000    0.0000    0.0000  100.3495
-------------------------------------------------------------------------------


  Elastic Compliance Matrix: (Units=1/GPa)

-------------------------------------------------------------------------------
  Indices      1         2         3         4         5         6    
-------------------------------------------------------------------------------
       1    0.004868 -0.001351 -0.001351  0.000000  0.000000  0.000000
       2   -0.001351  0.004868 -0.001351  0.000000  0.000000  0.000000
       3   -0.001351 -0.001351  0.004868  0.000000  0.000000  0.000000
       4    0.000000  0.000000  0.000000  0.009965  0.000000  0.000000
       5    0.000000  0.000000  0.000000  0.000000  0.009965  0.000000
       6    0.000000  0.000000  0.000000  0.000000  0.000000  0.009965
-------------------------------------------------------------------------------

  Mechanical properties :

-------------------------------------------------------------------------------
  Convention :                    Reuss         Voigt         Hill
-------------------------------------------------------------------------------
  Bulk  Modulus (GPa)     =     153.94694     153.94694     153.94694
  Shear Modulus (GPa)     =      91.28699      92.36816      91.82758
-------------------------------------------------------------------------------
  Velocity S-wave (km/s)  =       4.24911       4.27420       4.26167
  Velocity P-wave (km/s)  =       7.38384       7.40312       7.39349
-------------------------------------------------------------------------------
  Compressibility (1/GPa) =    0.00649574
-------------------------------------------------------------------------------
  Stress axis :                     x             y             z
-------------------------------------------------------------------------------
  Youngs Moduli (GPa)     =     205.42819     205.42819     205.42819
-------------------------------------------------------------------------------
  Poissons Ratio (x)      =                     0.27760       0.27760
  Poissons Ratio (y)      =       0.27760                     0.27760
  Poissons Ratio (z)      =       0.27760       0.27760
-------------------------------------------------------------------------------


  Piezoelectric Strain Matrix: (Units=C/m**2)

-------------------------------------------------------------------------------
  Indices      1         2         3         4         5         6    
-------------------------------------------------------------------------------
       x     0.00000   0.00000   0.00000   0.00000   0.00000   0.00000
       y     0.00000   0.00000   0.00000   0.00000   0.00000   0.00000
       z     0.00000   0.00000   0.00000   0.00000   0.00000   0.00000
-------------------------------------------------------------------------------


  Piezoelectric Stress Matrix: (Units=10**-11 C/N)

-------------------------------------------------------------------------------
  Indices      1         2         3         4         5         6    
-------------------------------------------------------------------------------
       x     0.00000   0.00000   0.00000   0.00000   0.00000   0.00000
       y     0.00000   0.00000   0.00000   0.00000   0.00000   0.00000
       z     0.00000   0.00000   0.00000   0.00000   0.00000   0.00000
-------------------------------------------------------------------------------


  Static dielectric constant tensor : 

-------------------------------------------------------------------------------
              x         y         z
-------------------------------------------------------------------------------
       x     4.75182   0.00000   0.00000
       y     0.00000   4.75182   0.00000
       z     0.00000   0.00000   4.75182
--------------------------------------------------------------------------------

  High frequency dielectric constant tensor : 

-------------------------------------------------------------------------------
              x         y         z
-------------------------------------------------------------------------------
       x     1.76274   0.00000   0.00000
       y     0.00000   1.76274   0.00000
       z     0.00000   0.00000   1.76274
-------------------------------------------------------------------------------

  Static refractive indices : 

-------------------------------------------------------------------------------
    1 =    2.17987      2 =    2.17987      3 =    2.17987
-------------------------------------------------------------------------------

  High frequency refractive indices : 

-------------------------------------------------------------------------------
    1 =    1.32768      2 =    1.32768      3 =    1.32768
-------------------------------------------------------------------------------


  Time to end of optimisation =       0.0122 seconds


  Peak dynamic memory used =       0.50 MB 


  Timing analysis for GULP :

--------------------------------------------------------------------------------
  Task / Subroutine                                          Time (Seconds)
--------------------------------------------------------------------------------
  Calculation of reciprocal space energy and derivatives          0.0011
  Calculation of real space energy and derivatives                0.0082
--------------------------------------------------------------------------------
  Total CPU time                                                  0.0122
--------------------------------------------------------------------------------


  CIF file written as perov.cif                                               


  Job Finished at 13:58.56 22nd February   2017                               

