********************************************************************************
*                       GENERAL UTILITY LATTICE PROGRAM                        *
*                                 Julian Gale                                  *
*                      Nanochemistry Research Institute                        *
*                           Department of Chemistry                            *
*                    Curtin University, Western Australia                      *
********************************************************************************
* Version = 4.3.2 * Last modified =  3rd March 2015                            *
********************************************************************************
*  optimise     - perform optimisation run                                     *
*  conp         - constant pressure calculation                                *
*  property     - calculate properties for final geometry                      *
********************************************************************************

  Job Started  at 13:58.55 22nd February   2017                               

  Number of CPUs =     1


  Total number of configurations input =   1

********************************************************************************
*  Input for Configuration =   1                                               *
********************************************************************************

  Formula = KZnF3                                                       

  Number of irreducible atoms/shells =       8


  Total number atoms/shells =       8

  Dimensionality = 3               :  Bulk   



  Cartesian lattice vectors (Angstroms) :

        4.200000    0.000000    0.000000
        0.000000    4.200000    0.000000
        0.000000    0.000000    4.200000

  Cell parameters (Angstroms/Degrees):

  a =       4.2000    alpha =  90.0000
  b =       4.2000    beta  =  90.0000
  c =       4.2000    gamma =  90.0000

  Initial cell volume =          74.088000 Angs**3

  Temperature of configuration =  0.000     K 

  Pressure of configuration =         0.000 GPa 

  Fractional coordinates of asymmetric unit :

--------------------------------------------------------------------------------
   No.  Atomic       x           y          z         Charge      Occupancy
        Label      (Frac)      (Frac)     (Frac)        (e)         (Frac)  
--------------------------------------------------------------------------------
      1 K     c    0.000000    0.000000    0.000000     0.70000    1.000000    
      2 Zn    c    0.500000 *  0.500000 *  0.500000 *   2.30000    1.000000    
      3 F     c    0.500000 *  0.500000 *  0.000000 *   0.37800    1.000000    
      4 F     c    0.000000 *  0.500000 *  0.500000 *   0.37800    1.000000    
      5 F     c    0.500000 *  0.000000 *  0.500000 *   0.37800    1.000000    
      6 F     s    0.500000 *  0.500000 *  0.000000 *  -1.37800    1.000000    
      7 F     s    0.000000 *  0.500000 *  0.500000 *  -1.37800    1.000000    
      8 F     s    0.500000 *  0.000000 *  0.500000 *  -1.37800    1.000000    
--------------------------------------------------------------------------------



********************************************************************************
*  General input information                                                   *
********************************************************************************

  Species output for all configurations : 

--------------------------------------------------------------------------------
  Species    Type    Atomic    Atomic    Charge       Radii (Angs)     Library
                     Number     Mass       (e)     Cova   Ionic  VDW   Symbol
--------------------------------------------------------------------------------
    K        Core       19      39.10   0.700000   1.330  0.000  2.800          
    Zn       Core       30      65.39   2.300000   1.450  0.000  2.160          
    F        Core        9      19.00   0.378000   0.710  0.000  1.300          
    F        Shell       9       0.00  -1.378000   0.710  0.000  1.300          
--------------------------------------------------------------------------------


  Lattice summation method               =    Ewald          (3-D)
                                         =    Parry          (2-D)
                                         =    Saunders et al (1-D)
  Accuracy factor for lattice sums       =   12.000


  Time limit = Infinity

  Maximum range for interatomic potentials =    100000.000000 Angstroms

  General interatomic potentials :

--------------------------------------------------------------------------------
Atom  Types   Potential         A         B         C         D     Cutoffs(Ang)
  1     2                                                            Min    Max 
--------------------------------------------------------------------------------
K    c K    c Buckingham    0.219E+04 0.192      0.00      0.00     0.000 10.000
Zn   c F    s Buckingham    0.148E+04 0.266      0.00      0.00     0.000 10.000
F    s F    s Buckingham     912.     0.271      20.0      0.00     0.000 10.000
K    c F    s Buckingham    0.352E+04 0.267      0.00      0.00     0.000 10.000
F    c F    s Spring (c-s)   24.3      0.00      0.00      0.00     0.000  0.800
--------------------------------------------------------------------------------

********************************************************************************
*  Output for configuration   1                                                *
********************************************************************************


  Components of energy : 

--------------------------------------------------------------------------------
  Interatomic potentials     =           3.74293438 eV
  Monopole - monopole (real) =         -11.64467475 eV
  Monopole - monopole (recip)=         -35.01462007 eV
  Monopole - monopole (total)=         -46.65929482 eV
--------------------------------------------------------------------------------
  Total lattice energy       =         -42.91636044 eV
--------------------------------------------------------------------------------
  Total lattice energy       =           -4140.7727 kJ/(mole unit cells)
--------------------------------------------------------------------------------


  Number of variables =       27

  Maximum number of calculations  =          1000
  Maximum Hessian update interval =            10
  Maximum step size               =   1.000000000
  Maximum parameter tolerance     =   0.000010000
  Maximum function  tolerance     =   0.000010000
  Maximum gradient  tolerance     =   0.001000000
  Maximum gradient  component     =   0.010000000

  Symmetry not applied to optimisation

  Cell parameters to be optimised using strains

  Newton-Raphson optimiser to be used

  BFGS hessian update to be used

  Start of bulk optimisation :

  Cycle:      0 Energy:       -42.916360  Gnorm:      0.292998  CPU:    0.003
  ** Hessian calculated **
  Cycle:      1 Energy:       -43.288291  Gnorm:      0.057618  CPU:    0.004
  Cycle:      2 Energy:       -43.298637  Gnorm:      0.013327  CPU:    0.006
  Cycle:      3 Energy:       -43.299254  Gnorm:      0.000043  CPU:    0.007


  **** Optimisation achieved ****


  Final energy =     -43.29925394 eV
  Final Gnorm  =       0.00000036

  Components of energy : 

--------------------------------------------------------------------------------
  Interatomic potentials     =           5.86342915 eV
  Monopole - monopole (real) =         -12.26944078 eV
  Monopole - monopole (recip)=         -36.89324232 eV
  Monopole - monopole (total)=         -49.16268310 eV
--------------------------------------------------------------------------------
  Total lattice energy       =         -43.29925394 eV
--------------------------------------------------------------------------------
  Total lattice energy       =           -4177.7161 kJ/(mole unit cells)
--------------------------------------------------------------------------------

  Final fractional coordinates of atoms :

--------------------------------------------------------------------------------
   No.  Atomic        x           y          z          Radius
        Label       (Frac)      (Frac)     (Frac)       (Angs) 
--------------------------------------------------------------------------------
     1  K     c     0.000000    0.000000    0.000000    0.000000
     2  Zn    c     0.500000    0.500000    0.500000    0.000000
     3  F     c     0.500000    0.500000    0.000000    0.000000
     4  F     c     0.000000    0.500000    0.500000    0.000000
     5  F     c     0.500000    0.000000    0.500000    0.000000
     6  F     s     0.500000    0.500000    0.000000    0.000000
     7  F     s     0.000000    0.500000    0.500000    0.000000
     8  F     s     0.500000    0.000000    0.500000    0.000000
--------------------------------------------------------------------------------

  Final Cartesian lattice vectors (Angstroms) :

        3.986134    0.000000    0.000000
        0.000000    3.986134    0.000000
        0.000000    0.000000    3.986134


  Final cell parameters and derivatives :

--------------------------------------------------------------------------------
       a            3.986134 Angstrom     dE/de1(xx)    -0.000006 eV/strain
       b            3.986134 Angstrom     dE/de2(yy)    -0.000006 eV/strain
       c            3.986134 Angstrom     dE/de3(zz)    -0.000006 eV/strain
       alpha       90.000000 Degrees      dE/de4(yz)     0.000000 eV/strain
       beta        90.000000 Degrees      dE/de5(xz)     0.000000 eV/strain
       gamma       90.000000 Degrees      dE/de6(xy)     0.000000 eV/strain
--------------------------------------------------------------------------------

  Primitive cell volume =            63.336732 Angs**3

  Density of cell =      4.233953 g/cm**3

  Non-primitive cell volume =            63.336732 Angs**3


  Final internal derivatives :

--------------------------------------------------------------------------------
   No.  Atomic          a             b             c           Radius
        Label          (eV)          (eV)          (eV)        (eV/Angs)
--------------------------------------------------------------------------------
      1 K     c       0.000000      0.000000      0.000000      0.000000
      2 Zn    c       0.000000      0.000000      0.000000      0.000000
      3 F     c       0.000000      0.000000      0.000000      0.000000
      4 F     c       0.000000      0.000000      0.000000      0.000000
      5 F     c       0.000000      0.000000      0.000000      0.000000
      6 F     s       0.000000      0.000000      0.000000      0.000000
      7 F     s       0.000000      0.000000      0.000000      0.000000
      8 F     s       0.000000      0.000000      0.000000      0.000000
--------------------------------------------------------------------------------
  Maximum abs         0.000000      0.000000      0.000000      0.000000
--------------------------------------------------------------------------------


  Born effective charge tensors : 

-------------------------------------------------------------------------------
  Atom             x           y             z
-------------------------------------------------------------------------------
   1 K     x       0.6226      0.0000      0.0000
           y       0.0000      0.6226      0.0000
           z       0.0000      0.0000      0.6226
-------------------------------------------------------------------------------
   2 Zn    x       1.9041      0.0000      0.0000
           y       0.0000      1.9041      0.0000
           z       0.0000      0.0000      1.9041
-------------------------------------------------------------------------------
   3 F     x      -0.7762      0.0000      0.0000
           y       0.0000     -0.7762      0.0000
           z       0.0000      0.0000     -0.9744
-------------------------------------------------------------------------------
   4 F     x      -0.9744      0.0000      0.0000
           y       0.0000     -0.7762      0.0000
           z       0.0000      0.0000     -0.7762
-------------------------------------------------------------------------------
   5 F     x      -0.7762      0.0000      0.0000
           y       0.0000     -0.9744      0.0000
           z       0.0000      0.0000     -0.7762
-------------------------------------------------------------------------------




  Elastic Constant Matrix: (Units=GPa)

-------------------------------------------------------------------------------
  Indices      1         2         3         4         5         6    
-------------------------------------------------------------------------------
       1    163.4905   52.3281   52.3281    0.0000    0.0000    0.0000
       2     52.3281  163.4905   52.3281    0.0000    0.0000    0.0000
       3     52.3281   52.3281  163.4905    0.0000    0.0000    0.0000
       4      0.0000    0.0000    0.0000   52.3281    0.0000    0.0000
       5      0.0000    0.0000    0.0000    0.0000   52.3281    0.0000
       6      0.0000    0.0000    0.0000    0.0000    0.0000   52.3281
-------------------------------------------------------------------------------


  Elastic Compliance Matrix: (Units=1/GPa)

-------------------------------------------------------------------------------
  Indices      1         2         3         4         5         6    
-------------------------------------------------------------------------------
       1    0.007240 -0.001756 -0.001756  0.000000  0.000000  0.000000
       2   -0.001756  0.007240 -0.001756  0.000000  0.000000  0.000000
       3   -0.001756 -0.001756  0.007240  0.000000  0.000000  0.000000
       4    0.000000  0.000000  0.000000  0.019110  0.000000  0.000000
       5    0.000000  0.000000  0.000000  0.000000  0.019110  0.000000
       6    0.000000  0.000000  0.000000  0.000000  0.000000  0.019110
-------------------------------------------------------------------------------

  Mechanical properties :

-------------------------------------------------------------------------------
  Convention :                    Reuss         Voigt         Hill
-------------------------------------------------------------------------------
  Bulk  Modulus (GPa)     =      89.38221      89.38221      89.38221
  Shear Modulus (GPa)     =      53.58252      53.62932      53.60592
-------------------------------------------------------------------------------
  Velocity S-wave (km/s)  =       3.55745       3.55900       3.55822
  Velocity P-wave (km/s)  =       6.16318       6.16437       6.16377
-------------------------------------------------------------------------------
  Compressibility (1/GPa) =    0.01118791
-------------------------------------------------------------------------------
  Stress axis :                     x             y             z
-------------------------------------------------------------------------------
  Youngs Moduli (GPa)     =     138.11521     138.11521     138.11521
-------------------------------------------------------------------------------
  Poissons Ratio (x)      =                     0.24246       0.24246
  Poissons Ratio (y)      =       0.24246                     0.24246
  Poissons Ratio (z)      =       0.24246       0.24246
-------------------------------------------------------------------------------


  Piezoelectric Strain Matrix: (Units=C/m**2)

-------------------------------------------------------------------------------
  Indices      1         2         3         4         5         6    
-------------------------------------------------------------------------------
       x     0.00000   0.00000   0.00000   0.00000   0.00000   0.00000
       y     0.00000   0.00000   0.00000   0.00000   0.00000   0.00000
       z     0.00000   0.00000   0.00000   0.00000   0.00000   0.00000
-------------------------------------------------------------------------------


  Piezoelectric Stress Matrix: (Units=10**-11 C/N)

-------------------------------------------------------------------------------
  Indices      1         2         3         4         5         6    
-------------------------------------------------------------------------------
       x     0.00000   0.00000   0.00000   0.00000   0.00000   0.00000
       y     0.00000   0.00000   0.00000   0.00000   0.00000   0.00000
       z     0.00000   0.00000   0.00000   0.00000   0.00000   0.00000
-------------------------------------------------------------------------------


  Static dielectric constant tensor : 

-------------------------------------------------------------------------------
              x         y         z
-------------------------------------------------------------------------------
       x     3.41783   0.00000   0.00000
       y     0.00000   3.41783   0.00000
       z     0.00000   0.00000   3.41783
--------------------------------------------------------------------------------

  High frequency dielectric constant tensor : 

-------------------------------------------------------------------------------
              x         y         z
-------------------------------------------------------------------------------
       x     1.63249   0.00000   0.00000
       y     0.00000   1.63249   0.00000
       z     0.00000   0.00000   1.63249
-------------------------------------------------------------------------------

  Static refractive indices : 

-------------------------------------------------------------------------------
    1 =    1.84874      2 =    1.84874      3 =    1.84874
-------------------------------------------------------------------------------

  High frequency refractive indices : 

-------------------------------------------------------------------------------
    1 =    1.27769      2 =    1.27769      3 =    1.27769
-------------------------------------------------------------------------------


  Time to end of optimisation =       0.0111 seconds


  Peak dynamic memory used =       0.50 MB 


  Timing analysis for GULP :

--------------------------------------------------------------------------------
  Task / Subroutine                                          Time (Seconds)
--------------------------------------------------------------------------------
  Calculation of reciprocal space energy and derivatives          0.0010
  Calculation of real space energy and derivatives                0.0072
--------------------------------------------------------------------------------
  Total CPU time                                                  0.0111
--------------------------------------------------------------------------------


  CIF file written as perov.cif                                               


  Job Finished at 13:58.55 22nd February   2017                               

