********************************************************************************
*                       GENERAL UTILITY LATTICE PROGRAM                        *
*                                 Julian Gale                                  *
*                      Nanochemistry Research Institute                        *
*                           Department of Chemistry                            *
*                    Curtin University, Western Australia                      *
********************************************************************************
* Version = 4.3.2 * Last modified =  3rd March 2015                            *
********************************************************************************
*  optimise     - perform optimisation run                                     *
*  conp         - constant pressure calculation                                *
*  property     - calculate properties for final geometry                      *
********************************************************************************

  Job Started  at 13:58.55 22nd February   2017                               

  Number of CPUs =     1


  Total number of configurations input =   1

********************************************************************************
*  Input for Configuration =   1                                               *
********************************************************************************

  Formula = KZnF3                                                       

  Number of irreducible atoms/shells =       8


  Total number atoms/shells =       8

  Dimensionality = 3               :  Bulk   



  Cartesian lattice vectors (Angstroms) :

        4.200000    0.000000    0.000000
        0.000000    4.200000    0.000000
        0.000000    0.000000    4.200000

  Cell parameters (Angstroms/Degrees):

  a =       4.2000    alpha =  90.0000
  b =       4.2000    beta  =  90.0000
  c =       4.2000    gamma =  90.0000

  Initial cell volume =          74.088000 Angs**3

  Temperature of configuration =  0.000     K 

  Pressure of configuration =         0.000 GPa 

  Fractional coordinates of asymmetric unit :

--------------------------------------------------------------------------------
   No.  Atomic       x           y          z         Charge      Occupancy
        Label      (Frac)      (Frac)     (Frac)        (e)         (Frac)  
--------------------------------------------------------------------------------
      1 K     c    0.000000    0.000000    0.000000     1.10000    1.000000    
      2 Zn    c    0.500000 *  0.500000 *  0.500000 *   2.00000    1.000000    
      3 F     c    0.500000 *  0.500000 *  0.000000 *   0.37800    1.000000    
      4 F     c    0.000000 *  0.500000 *  0.500000 *   0.37800    1.000000    
      5 F     c    0.500000 *  0.000000 *  0.500000 *   0.37800    1.000000    
      6 F     s    0.500000 *  0.500000 *  0.000000 *  -1.41133    1.000000    
      7 F     s    0.000000 *  0.500000 *  0.500000 *  -1.41133    1.000000    
      8 F     s    0.500000 *  0.000000 *  0.500000 *  -1.41133    1.000000    
--------------------------------------------------------------------------------



********************************************************************************
*  General input information                                                   *
********************************************************************************

  Species output for all configurations : 

--------------------------------------------------------------------------------
  Species    Type    Atomic    Atomic    Charge       Radii (Angs)     Library
                     Number     Mass       (e)     Cova   Ionic  VDW   Symbol
--------------------------------------------------------------------------------
    K        Core       19      39.10   1.100000   1.330  0.000  2.800          
    Zn       Core       30      65.39   2.000000   1.450  0.000  2.160          
    F        Core        9      19.00   0.378000   0.710  0.000  1.300          
    F        Shell       9       0.00  -1.411333   0.710  0.000  1.300          
--------------------------------------------------------------------------------


  Lattice summation method               =    Ewald          (3-D)
                                         =    Parry          (2-D)
                                         =    Saunders et al (1-D)
  Accuracy factor for lattice sums       =   12.000


  Time limit = Infinity

  Maximum range for interatomic potentials =    100000.000000 Angstroms

  General interatomic potentials :

--------------------------------------------------------------------------------
Atom  Types   Potential         A         B         C         D     Cutoffs(Ang)
  1     2                                                            Min    Max 
--------------------------------------------------------------------------------
K    c K    c Buckingham    0.219E+04 0.192      0.00      0.00     0.000 10.000
Zn   c F    s Buckingham    0.148E+04 0.266      0.00      0.00     0.000 10.000
F    s F    s Buckingham     912.     0.271      20.0      0.00     0.000 10.000
K    c F    s Buckingham    0.352E+04 0.267      0.00      0.00     0.000 10.000
F    c F    s Spring (c-s)   25.5      0.00      0.00      0.00     0.000  0.800
--------------------------------------------------------------------------------

********************************************************************************
*  Output for configuration   1                                                *
********************************************************************************


  Components of energy : 

--------------------------------------------------------------------------------
  Interatomic potentials     =           3.74293438 eV
  Monopole - monopole (real) =         -10.90909022 eV
  Monopole - monopole (recip)=         -33.60898270 eV
  Monopole - monopole (total)=         -44.51807293 eV
--------------------------------------------------------------------------------
  Total lattice energy       =         -40.77513855 eV
--------------------------------------------------------------------------------
  Total lattice energy       =           -3934.1776 kJ/(mole unit cells)
--------------------------------------------------------------------------------


  Number of variables =       27

  Maximum number of calculations  =          1000
  Maximum Hessian update interval =            10
  Maximum step size               =   1.000000000
  Maximum parameter tolerance     =   0.000010000
  Maximum function  tolerance     =   0.000010000
  Maximum gradient  tolerance     =   0.001000000
  Maximum gradient  component     =   0.010000000

  Symmetry not applied to optimisation

  Cell parameters to be optimised using strains

  Newton-Raphson optimiser to be used

  BFGS hessian update to be used

  Start of bulk optimisation :

  Cycle:      0 Energy:       -40.775139  Gnorm:      0.247212  CPU:    0.003
  ** Hessian calculated **
  Cycle:      1 Energy:       -41.046218  Gnorm:      0.037864  CPU:    0.005
  Cycle:      2 Energy:       -41.051028  Gnorm:      0.007621  CPU:    0.006
  Cycle:      3 Energy:       -41.051238  Gnorm:      0.000015  CPU:    0.008


  **** Optimisation achieved ****


  Final energy =     -41.05123809 eV
  Final Gnorm  =       0.00000007

  Components of energy : 

--------------------------------------------------------------------------------
  Interatomic potentials     =           5.51723016 eV
  Monopole - monopole (real) =         -11.41153667 eV
  Monopole - monopole (recip)=         -35.15693158 eV
  Monopole - monopole (total)=         -46.56846826 eV
--------------------------------------------------------------------------------
  Total lattice energy       =         -41.05123809 eV
--------------------------------------------------------------------------------
  Total lattice energy       =           -3960.8170 kJ/(mole unit cells)
--------------------------------------------------------------------------------

  Final fractional coordinates of atoms :

--------------------------------------------------------------------------------
   No.  Atomic        x           y          z          Radius
        Label       (Frac)      (Frac)     (Frac)       (Angs) 
--------------------------------------------------------------------------------
     1  K     c     0.000000    0.000000    0.000000    0.000000
     2  Zn    c     0.500000    0.500000    0.500000    0.000000
     3  F     c     0.500000    0.500000    0.000000    0.000000
     4  F     c     1.000000    0.500000    0.500000    0.000000
     5  F     c     0.500000    1.000000    0.500000    0.000000
     6  F     s     0.500000    0.500000    0.000000    0.000000
     7  F     s     1.000000    0.500000    0.500000    0.000000
     8  F     s     0.500000    1.000000    0.500000    0.000000
--------------------------------------------------------------------------------

  Final Cartesian lattice vectors (Angstroms) :

        4.015075    0.000000    0.000000
        0.000000    4.015075    0.000000
        0.000000    0.000000    4.015075


  Final cell parameters and derivatives :

--------------------------------------------------------------------------------
       a            4.015075 Angstrom     dE/de1(xx)    -0.000001 eV/strain
       b            4.015075 Angstrom     dE/de2(yy)    -0.000001 eV/strain
       c            4.015075 Angstrom     dE/de3(zz)    -0.000001 eV/strain
       alpha       90.000000 Degrees      dE/de4(yz)     0.000000 eV/strain
       beta        90.000000 Degrees      dE/de5(xz)     0.000000 eV/strain
       gamma       90.000000 Degrees      dE/de6(xy)     0.000000 eV/strain
--------------------------------------------------------------------------------

  Primitive cell volume =            64.726345 Angs**3

  Density of cell =      4.143054 g/cm**3

  Non-primitive cell volume =            64.726345 Angs**3


  Final internal derivatives :

--------------------------------------------------------------------------------
   No.  Atomic          a             b             c           Radius
        Label          (eV)          (eV)          (eV)        (eV/Angs)
--------------------------------------------------------------------------------
      1 K     c       0.000000      0.000000      0.000000      0.000000
      2 Zn    c       0.000000      0.000000      0.000000      0.000000
      3 F     c       0.000000      0.000000      0.000000      0.000000
      4 F     c       0.000000      0.000000      0.000000      0.000000
      5 F     c       0.000000      0.000000      0.000000      0.000000
      6 F     s       0.000000      0.000000      0.000000      0.000000
      7 F     s       0.000000      0.000000      0.000000      0.000000
      8 F     s       0.000000      0.000000      0.000000      0.000000
--------------------------------------------------------------------------------
  Maximum abs         0.000000      0.000000      0.000000      0.000000
--------------------------------------------------------------------------------


  Born effective charge tensors : 

-------------------------------------------------------------------------------
  Atom             x           y             z
-------------------------------------------------------------------------------
   1 K     x       1.1188      0.0000      0.0000
           y       0.0000      1.1188      0.0000
           z       0.0000      0.0000      1.1188
-------------------------------------------------------------------------------
   2 Zn    x       1.5588      0.0000      0.0000
           y       0.0000      1.5588      0.0000
           z       0.0000      0.0000      1.5588
-------------------------------------------------------------------------------
   3 F     x      -0.8857      0.0000      0.0000
           y       0.0000     -0.8857      0.0000
           z       0.0000      0.0000     -0.9062
-------------------------------------------------------------------------------
   4 F     x      -0.9062      0.0000      0.0000
           y       0.0000     -0.8857      0.0000
           z       0.0000      0.0000     -0.8857
-------------------------------------------------------------------------------
   5 F     x      -0.8857      0.0000      0.0000
           y       0.0000     -0.9062      0.0000
           z       0.0000      0.0000     -0.8857
-------------------------------------------------------------------------------




  Elastic Constant Matrix: (Units=GPa)

-------------------------------------------------------------------------------
  Indices      1         2         3         4         5         6    
-------------------------------------------------------------------------------
       1    155.7817   47.3530   47.3530    0.0000    0.0000    0.0000
       2     47.3530  155.7817   47.3530    0.0000    0.0000    0.0000
       3     47.3530   47.3530  155.7817    0.0000    0.0000    0.0000
       4      0.0000    0.0000    0.0000   47.3530    0.0000    0.0000
       5      0.0000    0.0000    0.0000    0.0000   47.3530    0.0000
       6      0.0000    0.0000    0.0000    0.0000    0.0000   47.3530
-------------------------------------------------------------------------------


  Elastic Compliance Matrix: (Units=1/GPa)

-------------------------------------------------------------------------------
  Indices      1         2         3         4         5         6    
-------------------------------------------------------------------------------
       1    0.007479 -0.001743 -0.001743  0.000000  0.000000  0.000000
       2   -0.001743  0.007479 -0.001743  0.000000  0.000000  0.000000
       3   -0.001743 -0.001743  0.007479  0.000000  0.000000  0.000000
       4    0.000000  0.000000  0.000000  0.021118  0.000000  0.000000
       5    0.000000  0.000000  0.000000  0.000000  0.021118  0.000000
       6    0.000000  0.000000  0.000000  0.000000  0.000000  0.021118
-------------------------------------------------------------------------------

  Mechanical properties :

-------------------------------------------------------------------------------
  Convention :                    Reuss         Voigt         Hill
-------------------------------------------------------------------------------
  Bulk  Modulus (GPa)     =      83.49588      83.49588      83.49588
  Shear Modulus (GPa)     =      49.87800      50.09752      49.98776
-------------------------------------------------------------------------------
  Velocity S-wave (km/s)  =       3.46972       3.47735       3.47353
  Velocity P-wave (km/s)  =       6.01707       6.02294       6.02001
-------------------------------------------------------------------------------
  Compressibility (1/GPa) =    0.01197664
-------------------------------------------------------------------------------
  Stress axis :                     x             y             z
-------------------------------------------------------------------------------
  Youngs Moduli (GPa)     =     133.70470     133.70470     133.70470
-------------------------------------------------------------------------------
  Poissons Ratio (x)      =                     0.23311       0.23311
  Poissons Ratio (y)      =       0.23311                     0.23311
  Poissons Ratio (z)      =       0.23311       0.23311
-------------------------------------------------------------------------------


  Piezoelectric Strain Matrix: (Units=C/m**2)

-------------------------------------------------------------------------------
  Indices      1         2         3         4         5         6    
-------------------------------------------------------------------------------
       x     0.00000   0.00000   0.00000   0.00000   0.00000   0.00000
       y     0.00000   0.00000   0.00000   0.00000   0.00000   0.00000
       z     0.00000   0.00000   0.00000   0.00000   0.00000   0.00000
-------------------------------------------------------------------------------


  Piezoelectric Stress Matrix: (Units=10**-11 C/N)

-------------------------------------------------------------------------------
  Indices      1         2         3         4         5         6    
-------------------------------------------------------------------------------
       x     0.00000   0.00000   0.00000   0.00000   0.00000   0.00000
       y     0.00000   0.00000   0.00000   0.00000   0.00000   0.00000
       z     0.00000   0.00000   0.00000   0.00000   0.00000   0.00000
-------------------------------------------------------------------------------


  Static dielectric constant tensor : 

-------------------------------------------------------------------------------
              x         y         z
-------------------------------------------------------------------------------
       x     4.86855   0.00000   0.00000
       y     0.00000   4.86855   0.00000
       z     0.00000   0.00000   4.86855
--------------------------------------------------------------------------------

  High frequency dielectric constant tensor : 

-------------------------------------------------------------------------------
              x         y         z
-------------------------------------------------------------------------------
       x     1.62608   0.00000   0.00000
       y     0.00000   1.62608   0.00000
       z     0.00000   0.00000   1.62608
-------------------------------------------------------------------------------

  Static refractive indices : 

-------------------------------------------------------------------------------
    1 =    2.20648      2 =    2.20648      3 =    2.20648
-------------------------------------------------------------------------------

  High frequency refractive indices : 

-------------------------------------------------------------------------------
    1 =    1.27518      2 =    1.27518      3 =    1.27518
-------------------------------------------------------------------------------


  Time to end of optimisation =       0.0117 seconds


  Peak dynamic memory used =       0.50 MB 


  Timing analysis for GULP :

--------------------------------------------------------------------------------
  Task / Subroutine                                          Time (Seconds)
--------------------------------------------------------------------------------
  Calculation of reciprocal space energy and derivatives          0.0010
  Calculation of real space energy and derivatives                0.0072
--------------------------------------------------------------------------------
  Total CPU time                                                  0.0118
--------------------------------------------------------------------------------


  CIF file written as perov.cif                                               


  Job Finished at 13:58.55 22nd February   2017                               

