********************************************************************************
*                       GENERAL UTILITY LATTICE PROGRAM                        *
*                                 Julian Gale                                  *
*                      Nanochemistry Research Institute                        *
*                           Department of Chemistry                            *
*                    Curtin University, Western Australia                      *
********************************************************************************
* Version = 4.3.2 * Last modified =  3rd March 2015                            *
********************************************************************************
*  optimise     - perform optimisation run                                     *
*  conp         - constant pressure calculation                                *
*  property     - calculate properties for final geometry                      *
********************************************************************************

  Job Started  at 13:58.55 22nd February   2017                               

  Number of CPUs =     1


  Total number of configurations input =   1

********************************************************************************
*  Input for Configuration =   1                                               *
********************************************************************************

  Formula = KZnF3                                                       

  Number of irreducible atoms/shells =       8


  Total number atoms/shells =       8

  Dimensionality = 3               :  Bulk   



  Cartesian lattice vectors (Angstroms) :

        4.200000    0.000000    0.000000
        0.000000    4.200000    0.000000
        0.000000    0.000000    4.200000

  Cell parameters (Angstroms/Degrees):

  a =       4.2000    alpha =  90.0000
  b =       4.2000    beta  =  90.0000
  c =       4.2000    gamma =  90.0000

  Initial cell volume =          74.088000 Angs**3

  Temperature of configuration =  0.000     K 

  Pressure of configuration =         0.000 GPa 

  Fractional coordinates of asymmetric unit :

--------------------------------------------------------------------------------
   No.  Atomic       x           y          z         Charge      Occupancy
        Label      (Frac)      (Frac)     (Frac)        (e)         (Frac)  
--------------------------------------------------------------------------------
      1 K     c    0.000000    0.000000    0.000000     1.10000    1.000000    
      2 Zn    c    0.500000 *  0.500000 *  0.500000 *   1.90000    1.000000    
      3 F     c    0.500000 *  0.500000 *  0.000000 *   0.37800    1.000000    
      4 F     c    0.000000 *  0.500000 *  0.500000 *   0.37800    1.000000    
      5 F     c    0.500000 *  0.000000 *  0.500000 *   0.37800    1.000000    
      6 F     s    0.500000 *  0.500000 *  0.000000 *  -1.37800    1.000000    
      7 F     s    0.000000 *  0.500000 *  0.500000 *  -1.37800    1.000000    
      8 F     s    0.500000 *  0.000000 *  0.500000 *  -1.37800    1.000000    
--------------------------------------------------------------------------------



********************************************************************************
*  General input information                                                   *
********************************************************************************

  Species output for all configurations : 

--------------------------------------------------------------------------------
  Species    Type    Atomic    Atomic    Charge       Radii (Angs)     Library
                     Number     Mass       (e)     Cova   Ionic  VDW   Symbol
--------------------------------------------------------------------------------
    K        Core       19      39.10   1.100000   1.330  0.000  2.800          
    Zn       Core       30      65.39   1.900000   1.450  0.000  2.160          
    F        Core        9      19.00   0.378000   0.710  0.000  1.300          
    F        Shell       9       0.00  -1.378000   0.710  0.000  1.300          
--------------------------------------------------------------------------------


  Lattice summation method               =    Ewald          (3-D)
                                         =    Parry          (2-D)
                                         =    Saunders et al (1-D)
  Accuracy factor for lattice sums       =   12.000


  Time limit = Infinity

  Maximum range for interatomic potentials =    100000.000000 Angstroms

  General interatomic potentials :

--------------------------------------------------------------------------------
Atom  Types   Potential         A         B         C         D     Cutoffs(Ang)
  1     2                                                            Min    Max 
--------------------------------------------------------------------------------
K    c K    c Buckingham    0.219E+04 0.192      0.00      0.00     0.000 10.000
Zn   c F    s Buckingham    0.148E+04 0.266      0.00      0.00     0.000 10.000
F    s F    s Buckingham     912.     0.271      20.0      0.00     0.000 10.000
K    c F    s Buckingham    0.352E+04 0.267      0.00      0.00     0.000 10.000
F    c F    s Spring (c-s)   24.3      0.00      0.00      0.00     0.000  0.800
--------------------------------------------------------------------------------

********************************************************************************
*  Output for configuration   1                                                *
********************************************************************************


  Components of energy : 

--------------------------------------------------------------------------------
  Interatomic potentials     =           3.74293438 eV
  Monopole - monopole (real) =         -10.08118922 eV
  Monopole - monopole (recip)=         -31.22660477 eV
  Monopole - monopole (total)=         -41.30779399 eV
--------------------------------------------------------------------------------
  Total lattice energy       =         -37.56485962 eV
--------------------------------------------------------------------------------
  Total lattice energy       =           -3624.4347 kJ/(mole unit cells)
--------------------------------------------------------------------------------


  Number of variables =       27

  Maximum number of calculations  =          1000
  Maximum Hessian update interval =            10
  Maximum step size               =   1.000000000
  Maximum parameter tolerance     =   0.000010000
  Maximum function  tolerance     =   0.000010000
  Maximum gradient  tolerance     =   0.001000000
  Maximum gradient  component     =   0.010000000

  Symmetry not applied to optimisation

  Cell parameters to be optimised using strains

  Newton-Raphson optimiser to be used

  BFGS hessian update to be used

  Start of bulk optimisation :

  Cycle:      0 Energy:       -37.564860  Gnorm:      0.178565  CPU:    0.003
  ** Hessian calculated **
  Cycle:      1 Energy:       -37.710508  Gnorm:      0.019700  CPU:    0.005
  Cycle:      2 Energy:       -37.711955  Gnorm:      0.002974  CPU:    0.006
  Cycle:      3 Energy:       -37.711989  Gnorm:      0.000003  CPU:    0.008


  **** Optimisation achieved ****


  Final energy =     -37.71198912 eV
  Final Gnorm  =       0.00000001

  Components of energy : 

--------------------------------------------------------------------------------
  Interatomic potentials     =           5.00809667 eV
  Monopole - monopole (real) =         -10.42585980 eV
  Monopole - monopole (recip)=         -32.29422600 eV
  Monopole - monopole (total)=         -42.72008580 eV
--------------------------------------------------------------------------------
  Total lattice energy       =         -37.71198912 eV
--------------------------------------------------------------------------------
  Total lattice energy       =           -3638.6305 kJ/(mole unit cells)
--------------------------------------------------------------------------------

  Final fractional coordinates of atoms :

--------------------------------------------------------------------------------
   No.  Atomic        x           y          z          Radius
        Label       (Frac)      (Frac)     (Frac)       (Angs) 
--------------------------------------------------------------------------------
     1  K     c     0.000000    0.000000    0.000000    0.000000
     2  Zn    c     0.500000    0.500000    0.500000    0.000000
     3  F     c     0.500000    0.500000    0.000000    0.000000
     4  F     c     0.000000    0.500000    0.500000    0.000000
     5  F     c     0.500000    0.000000    0.500000    0.000000
     6  F     s     0.500000    0.500000    0.000000    0.000000
     7  F     s     0.000000    0.500000    0.500000    0.000000
     8  F     s     0.500000    0.000000    0.500000    0.000000
--------------------------------------------------------------------------------

  Final Cartesian lattice vectors (Angstroms) :

        4.061151    0.000000    0.000000
        0.000000    4.061151    0.000000
        0.000000    0.000000    4.061151


  Final cell parameters and derivatives :

--------------------------------------------------------------------------------
       a            4.061151 Angstrom     dE/de1(xx)     0.000000 eV/strain
       b            4.061151 Angstrom     dE/de2(yy)     0.000000 eV/strain
       c            4.061151 Angstrom     dE/de3(zz)     0.000000 eV/strain
       alpha       90.000000 Degrees      dE/de4(yz)     0.000000 eV/strain
       beta        90.000000 Degrees      dE/de5(xz)     0.000000 eV/strain
       gamma       90.000000 Degrees      dE/de6(xy)     0.000000 eV/strain
--------------------------------------------------------------------------------

  Primitive cell volume =            66.980368 Angs**3

  Density of cell =      4.003632 g/cm**3

  Non-primitive cell volume =            66.980368 Angs**3


  Final internal derivatives :

--------------------------------------------------------------------------------
   No.  Atomic          a             b             c           Radius
        Label          (eV)          (eV)          (eV)        (eV/Angs)
--------------------------------------------------------------------------------
      1 K     c       0.000000      0.000000      0.000000      0.000000
      2 Zn    c       0.000000      0.000000      0.000000      0.000000
      3 F     c       0.000000      0.000000      0.000000      0.000000
      4 F     c       0.000000      0.000000      0.000000      0.000000
      5 F     c       0.000000      0.000000      0.000000      0.000000
      6 F     s       0.000000      0.000000      0.000000      0.000000
      7 F     s       0.000000      0.000000      0.000000      0.000000
      8 F     s       0.000000      0.000000      0.000000      0.000000
--------------------------------------------------------------------------------
  Maximum abs         0.000000      0.000000      0.000000      0.000000
--------------------------------------------------------------------------------


  Born effective charge tensors : 

-------------------------------------------------------------------------------
  Atom             x           y             z
-------------------------------------------------------------------------------
   1 K     x       1.1312      0.0000      0.0000
           y       0.0000      1.1312      0.0000
           z       0.0000      0.0000      1.1312
-------------------------------------------------------------------------------
   2 Zn    x       1.4690      0.0000      0.0000
           y       0.0000      1.4690      0.0000
           z       0.0000      0.0000      1.4690
-------------------------------------------------------------------------------
   3 F     x      -0.8700      0.0000      0.0000
           y       0.0000     -0.8700      0.0000
           z       0.0000      0.0000     -0.8601
-------------------------------------------------------------------------------
   4 F     x      -0.8601      0.0000      0.0000
           y       0.0000     -0.8700      0.0000
           z       0.0000      0.0000     -0.8700
-------------------------------------------------------------------------------
   5 F     x      -0.8700      0.0000      0.0000
           y       0.0000     -0.8601      0.0000
           z       0.0000      0.0000     -0.8700
-------------------------------------------------------------------------------




  Elastic Constant Matrix: (Units=GPa)

-------------------------------------------------------------------------------
  Indices      1         2         3         4         5         6    
-------------------------------------------------------------------------------
       1    142.5734   41.1152   41.1152    0.0000    0.0000    0.0000
       2     41.1152  142.5734   41.1152    0.0000    0.0000    0.0000
       3     41.1152   41.1152  142.5734    0.0000    0.0000    0.0000
       4      0.0000    0.0000    0.0000   41.1152    0.0000    0.0000
       5      0.0000    0.0000    0.0000    0.0000   41.1152    0.0000
       6      0.0000    0.0000    0.0000    0.0000    0.0000   41.1152
-------------------------------------------------------------------------------


  Elastic Compliance Matrix: (Units=1/GPa)

-------------------------------------------------------------------------------
  Indices      1         2         3         4         5         6    
-------------------------------------------------------------------------------
       1    0.008054 -0.001803 -0.001803  0.000000  0.000000  0.000000
       2   -0.001803  0.008054 -0.001803  0.000000  0.000000  0.000000
       3   -0.001803 -0.001803  0.008054  0.000000  0.000000  0.000000
       4    0.000000  0.000000  0.000000  0.024322  0.000000  0.000000
       5    0.000000  0.000000  0.000000  0.000000  0.024322  0.000000
       6    0.000000  0.000000  0.000000  0.000000  0.000000  0.024322
-------------------------------------------------------------------------------

  Mechanical properties :

-------------------------------------------------------------------------------
  Convention :                    Reuss         Voigt         Hill
-------------------------------------------------------------------------------
  Bulk  Modulus (GPa)     =      74.93463      74.93463      74.93463
  Shear Modulus (GPa)     =      44.48764      44.96078      44.72421
-------------------------------------------------------------------------------
  Velocity S-wave (km/s)  =       3.33344       3.35112       3.34229
  Velocity P-wave (km/s)  =       5.79072       5.80431       5.79752
-------------------------------------------------------------------------------
  Compressibility (1/GPa) =    0.01334496
-------------------------------------------------------------------------------
  Stress axis :                     x             y             z
-------------------------------------------------------------------------------
  Youngs Moduli (GPa)     =     124.16770     124.16770     124.16770
-------------------------------------------------------------------------------
  Poissons Ratio (x)      =                     0.22383       0.22383
  Poissons Ratio (y)      =       0.22383                     0.22383
  Poissons Ratio (z)      =       0.22383       0.22383
-------------------------------------------------------------------------------


  Piezoelectric Strain Matrix: (Units=C/m**2)

-------------------------------------------------------------------------------
  Indices      1         2         3         4         5         6    
-------------------------------------------------------------------------------
       x     0.00000   0.00000   0.00000   0.00000   0.00000   0.00000
       y     0.00000   0.00000   0.00000   0.00000   0.00000   0.00000
       z     0.00000   0.00000   0.00000   0.00000   0.00000   0.00000
-------------------------------------------------------------------------------


  Piezoelectric Stress Matrix: (Units=10**-11 C/N)

-------------------------------------------------------------------------------
  Indices      1         2         3         4         5         6    
-------------------------------------------------------------------------------
       x     0.00000   0.00000   0.00000   0.00000   0.00000   0.00000
       y     0.00000   0.00000   0.00000   0.00000   0.00000   0.00000
       z     0.00000   0.00000   0.00000   0.00000   0.00000   0.00000
-------------------------------------------------------------------------------


  Static dielectric constant tensor : 

-------------------------------------------------------------------------------
              x         y         z
-------------------------------------------------------------------------------
       x     5.23370   0.00000   0.00000
       y     0.00000   5.23370   0.00000
       z     0.00000   0.00000   5.23370
--------------------------------------------------------------------------------

  High frequency dielectric constant tensor : 

-------------------------------------------------------------------------------
              x         y         z
-------------------------------------------------------------------------------
       x     1.60649   0.00000   0.00000
       y     0.00000   1.60649   0.00000
       z     0.00000   0.00000   1.60649
-------------------------------------------------------------------------------

  Static refractive indices : 

-------------------------------------------------------------------------------
    1 =    2.28773      2 =    2.28773      3 =    2.28773
-------------------------------------------------------------------------------

  High frequency refractive indices : 

-------------------------------------------------------------------------------
    1 =    1.26747      2 =    1.26747      3 =    1.26747
-------------------------------------------------------------------------------


  Time to end of optimisation =       0.0116 seconds


  Peak dynamic memory used =       0.50 MB 


  Timing analysis for GULP :

--------------------------------------------------------------------------------
  Task / Subroutine                                          Time (Seconds)
--------------------------------------------------------------------------------
  Calculation of reciprocal space energy and derivatives          0.0010
  Calculation of real space energy and derivatives                0.0072
--------------------------------------------------------------------------------
  Total CPU time                                                  0.0117
--------------------------------------------------------------------------------


  CIF file written as perov.cif                                               


  Job Finished at 13:58.55 22nd February   2017                               

