********************************************************************************
*                       GENERAL UTILITY LATTICE PROGRAM                        *
*                                 Julian Gale                                  *
*                      Nanochemistry Research Institute                        *
*                           Department of Chemistry                            *
*                    Curtin University, Western Australia                      *
********************************************************************************
* Version = 4.3.2 * Last modified =  3rd March 2015                            *
********************************************************************************
*  optimise     - perform optimisation run                                     *
*  conp         - constant pressure calculation                                *
*  property     - calculate properties for final geometry                      *
********************************************************************************

  Job Started  at 13:58.54 22nd February   2017                               

  Number of CPUs =     1


  Total number of configurations input =   1

********************************************************************************
*  Input for Configuration =   1                                               *
********************************************************************************

  Formula = KZnF3                                                       

  Number of irreducible atoms/shells =       8


  Total number atoms/shells =       8

  Dimensionality = 3               :  Bulk   



  Cartesian lattice vectors (Angstroms) :

        4.200000    0.000000    0.000000
        0.000000    4.200000    0.000000
        0.000000    0.000000    4.200000

  Cell parameters (Angstroms/Degrees):

  a =       4.2000    alpha =  90.0000
  b =       4.2000    beta  =  90.0000
  c =       4.2000    gamma =  90.0000

  Initial cell volume =          74.088000 Angs**3

  Temperature of configuration =  0.000     K 

  Pressure of configuration =         0.000 GPa 

  Fractional coordinates of asymmetric unit :

--------------------------------------------------------------------------------
   No.  Atomic       x           y          z         Charge      Occupancy
        Label      (Frac)      (Frac)     (Frac)        (e)         (Frac)  
--------------------------------------------------------------------------------
      1 K     c    0.000000    0.000000    0.000000     0.50000    1.000000    
      2 Zn    c    0.500000 *  0.500000 *  0.500000 *   1.80000    1.000000    
      3 F     c    0.500000 *  0.500000 *  0.000000 *   0.37800    1.000000    
      4 F     c    0.000000 *  0.500000 *  0.500000 *   0.37800    1.000000    
      5 F     c    0.500000 *  0.000000 *  0.500000 *   0.37800    1.000000    
      6 F     s    0.500000 *  0.500000 *  0.000000 *  -1.14467    1.000000    
      7 F     s    0.000000 *  0.500000 *  0.500000 *  -1.14467    1.000000    
      8 F     s    0.500000 *  0.000000 *  0.500000 *  -1.14467    1.000000    
--------------------------------------------------------------------------------



********************************************************************************
*  General input information                                                   *
********************************************************************************

  Species output for all configurations : 

--------------------------------------------------------------------------------
  Species    Type    Atomic    Atomic    Charge       Radii (Angs)     Library
                     Number     Mass       (e)     Cova   Ionic  VDW   Symbol
--------------------------------------------------------------------------------
    K        Core       19      39.10   0.500000   1.330  0.000  2.800          
    Zn       Core       30      65.39   1.800000   1.450  0.000  2.160          
    F        Core        9      19.00   0.378000   0.710  0.000  1.300          
    F        Shell       9       0.00  -1.144667   0.710  0.000  1.300          
--------------------------------------------------------------------------------


  Lattice summation method               =    Ewald          (3-D)
                                         =    Parry          (2-D)
                                         =    Saunders et al (1-D)
  Accuracy factor for lattice sums       =   12.000


  Time limit = Infinity

  Maximum range for interatomic potentials =    100000.000000 Angstroms

  General interatomic potentials :

--------------------------------------------------------------------------------
Atom  Types   Potential         A         B         C         D     Cutoffs(Ang)
  1     2                                                            Min    Max 
--------------------------------------------------------------------------------
K    c K    c Buckingham    0.219E+04 0.192      0.00      0.00     0.000 10.000
Zn   c F    s Buckingham    0.148E+04 0.266      0.00      0.00     0.000 10.000
F    s F    s Buckingham     912.     0.271      20.0      0.00     0.000 10.000
K    c F    s Buckingham    0.352E+04 0.267      0.00      0.00     0.000 10.000
F    c F    s Spring (c-s)   16.8      0.00      0.00      0.00     0.000  0.800
--------------------------------------------------------------------------------

********************************************************************************
*  Output for configuration   1                                                *
********************************************************************************


  Components of energy : 

--------------------------------------------------------------------------------
  Interatomic potentials     =           3.74293438 eV
  Monopole - monopole (real) =          -6.95752812 eV
  Monopole - monopole (recip)=         -20.93170870 eV
  Monopole - monopole (total)=         -27.88923681 eV
--------------------------------------------------------------------------------
  Total lattice energy       =         -24.14630244 eV
--------------------------------------------------------------------------------
  Total lattice energy       =           -2329.7491 kJ/(mole unit cells)
--------------------------------------------------------------------------------


  Number of variables =       27

  Maximum number of calculations  =          1000
  Maximum Hessian update interval =            10
  Maximum step size               =   1.000000000
  Maximum parameter tolerance     =   0.000010000
  Maximum function  tolerance     =   0.000010000
  Maximum gradient  tolerance     =   0.001000000
  Maximum gradient  component     =   0.010000000

  Symmetry not applied to optimisation

  Cell parameters to be optimised using strains

  Newton-Raphson optimiser to be used

  BFGS hessian update to be used

  Start of bulk optimisation :

  Cycle:      0 Energy:       -24.146302  Gnorm:      0.108368  CPU:    0.003
  ** Hessian calculated **
  Cycle:      1 Energy:       -24.204885  Gnorm:      0.003526  CPU:    0.005
  Cycle:      2 Energy:       -24.204955  Gnorm:      0.000004  CPU:    0.006


  **** Optimisation achieved ****


  Final energy =     -24.20495528 eV
  Final Gnorm  =       0.00000000

  Components of energy : 

--------------------------------------------------------------------------------
  Interatomic potentials     =           3.02045284 eV
  Monopole - monopole (real) =          -6.79192277 eV
  Monopole - monopole (recip)=         -20.43348535 eV
  Monopole - monopole (total)=         -27.22540812 eV
--------------------------------------------------------------------------------
  Total lattice energy       =         -24.20495528 eV
--------------------------------------------------------------------------------
  Total lattice energy       =           -2335.4082 kJ/(mole unit cells)
--------------------------------------------------------------------------------

  Final fractional coordinates of atoms :

--------------------------------------------------------------------------------
   No.  Atomic        x           y          z          Radius
        Label       (Frac)      (Frac)     (Frac)       (Angs) 
--------------------------------------------------------------------------------
     1  K     c     0.000000    0.000000    0.000000    0.000000
     2  Zn    c     0.500000    0.500000    0.500000    0.000000
     3  F     c     0.500000    0.500000    0.000000    0.000000
     4  F     c     0.000000    0.500000    0.500000    0.000000
     5  F     c     0.500000    0.000000    0.500000    0.000000
     6  F     s     0.500000    0.500000    0.000000    0.000000
     7  F     s     0.000000    0.500000    0.500000    0.000000
     8  F     s     0.500000    0.000000    0.500000    0.000000
--------------------------------------------------------------------------------

  Final Cartesian lattice vectors (Angstroms) :

        4.302407    0.000000    0.000000
        0.000000    4.302407    0.000000
        0.000000    0.000000    4.302407


  Final cell parameters and derivatives :

--------------------------------------------------------------------------------
       a            4.302407 Angstrom     dE/de1(xx)     0.000000 eV/strain
       b            4.302407 Angstrom     dE/de2(yy)     0.000000 eV/strain
       c            4.302407 Angstrom     dE/de3(zz)     0.000000 eV/strain
       alpha       90.000000 Degrees      dE/de4(yz)     0.000000 eV/strain
       beta        90.000000 Degrees      dE/de5(xz)     0.000000 eV/strain
       gamma       90.000000 Degrees      dE/de6(xy)     0.000000 eV/strain
--------------------------------------------------------------------------------

  Primitive cell volume =            79.640608 Angs**3

  Density of cell =      3.367186 g/cm**3

  Non-primitive cell volume =            79.640608 Angs**3


  Final internal derivatives :

--------------------------------------------------------------------------------
   No.  Atomic          a             b             c           Radius
        Label          (eV)          (eV)          (eV)        (eV/Angs)
--------------------------------------------------------------------------------
      1 K     c       0.000000      0.000000      0.000000      0.000000
      2 Zn    c       0.000000      0.000000      0.000000      0.000000
      3 F     c       0.000000      0.000000      0.000000      0.000000
      4 F     c       0.000000      0.000000      0.000000      0.000000
      5 F     c       0.000000      0.000000      0.000000      0.000000
      6 F     s       0.000000      0.000000      0.000000      0.000000
      7 F     s       0.000000      0.000000      0.000000      0.000000
      8 F     s       0.000000      0.000000      0.000000      0.000000
--------------------------------------------------------------------------------
  Maximum abs         0.000000      0.000000      0.000000      0.000000
--------------------------------------------------------------------------------


  Born effective charge tensors : 

-------------------------------------------------------------------------------
  Atom             x           y             z
-------------------------------------------------------------------------------
   1 K     x       0.4637      0.0000      0.0000
           y       0.0000      0.4637      0.0000
           z       0.0000      0.0000      0.4637
-------------------------------------------------------------------------------
   2 Zn    x       1.4812      0.0000      0.0000
           y       0.0000      1.4812      0.0000
           z       0.0000      0.0000      1.4812
-------------------------------------------------------------------------------
   3 F     x      -0.6195      0.0000      0.0000
           y       0.0000     -0.6195      0.0000
           z       0.0000      0.0000     -0.7059
-------------------------------------------------------------------------------
   4 F     x      -0.7059      0.0000      0.0000
           y       0.0000     -0.6195      0.0000
           z       0.0000      0.0000     -0.6195
-------------------------------------------------------------------------------
   5 F     x      -0.6195      0.0000      0.0000
           y       0.0000     -0.7059      0.0000
           z       0.0000      0.0000     -0.6195
-------------------------------------------------------------------------------




  Elastic Constant Matrix: (Units=GPa)

-------------------------------------------------------------------------------
  Indices      1         2         3         4         5         6    
-------------------------------------------------------------------------------
       1     86.2212   21.0324   21.0324    0.0000    0.0000    0.0000
       2     21.0324   86.2212   21.0324    0.0000    0.0000    0.0000
       3     21.0324   21.0324   86.2212    0.0000    0.0000    0.0000
       4      0.0000    0.0000    0.0000   21.0324    0.0000    0.0000
       5      0.0000    0.0000    0.0000    0.0000   21.0324    0.0000
       6      0.0000    0.0000    0.0000    0.0000    0.0000   21.0324
-------------------------------------------------------------------------------


  Elastic Compliance Matrix: (Units=1/GPa)

-------------------------------------------------------------------------------
  Indices      1         2         3         4         5         6    
-------------------------------------------------------------------------------
       1    0.012825 -0.002515 -0.002515  0.000000  0.000000  0.000000
       2   -0.002515  0.012825 -0.002515  0.000000  0.000000  0.000000
       3   -0.002515 -0.002515  0.012825  0.000000  0.000000  0.000000
       4    0.000000  0.000000  0.000000  0.047546  0.000000  0.000000
       5    0.000000  0.000000  0.000000  0.000000  0.047546  0.000000
       6    0.000000  0.000000  0.000000  0.000000  0.000000  0.047546
-------------------------------------------------------------------------------

  Mechanical properties :

-------------------------------------------------------------------------------
  Convention :                    Reuss         Voigt         Hill
-------------------------------------------------------------------------------
  Bulk  Modulus (GPa)     =      42.76204      42.76204      42.76204
  Shear Modulus (GPa)     =      24.51016      25.65722      25.08369
-------------------------------------------------------------------------------
  Velocity S-wave (km/s)  =       2.69799       2.76040       2.72937
  Velocity P-wave (km/s)  =       4.73341       4.78114       4.75734
-------------------------------------------------------------------------------
  Compressibility (1/GPa) =    0.02338523
-------------------------------------------------------------------------------
  Stress axis :                     x             y             z
-------------------------------------------------------------------------------
  Youngs Moduli (GPa)     =      77.97230      77.97230      77.97230
-------------------------------------------------------------------------------
  Poissons Ratio (x)      =                     0.19610       0.19610
  Poissons Ratio (y)      =       0.19610                     0.19610
  Poissons Ratio (z)      =       0.19610       0.19610
-------------------------------------------------------------------------------


  Piezoelectric Strain Matrix: (Units=C/m**2)

-------------------------------------------------------------------------------
  Indices      1         2         3         4         5         6    
-------------------------------------------------------------------------------
       x     0.00000   0.00000   0.00000   0.00000   0.00000   0.00000
       y     0.00000   0.00000   0.00000   0.00000   0.00000   0.00000
       z     0.00000   0.00000   0.00000   0.00000   0.00000   0.00000
-------------------------------------------------------------------------------


  Piezoelectric Stress Matrix: (Units=10**-11 C/N)

-------------------------------------------------------------------------------
  Indices      1         2         3         4         5         6    
-------------------------------------------------------------------------------
       x     0.00000   0.00000   0.00000   0.00000   0.00000   0.00000
       y     0.00000   0.00000   0.00000   0.00000   0.00000   0.00000
       z     0.00000   0.00000   0.00000   0.00000   0.00000   0.00000
-------------------------------------------------------------------------------


  Static dielectric constant tensor : 

-------------------------------------------------------------------------------
              x         y         z
-------------------------------------------------------------------------------
       x     3.09884   0.00000   0.00000
       y     0.00000   3.09884   0.00000
       z     0.00000   0.00000   3.09884
--------------------------------------------------------------------------------

  High frequency dielectric constant tensor : 

-------------------------------------------------------------------------------
              x         y         z
-------------------------------------------------------------------------------
       x     1.50730   0.00000   0.00000
       y     0.00000   1.50730   0.00000
       z     0.00000   0.00000   1.50730
-------------------------------------------------------------------------------

  Static refractive indices : 

-------------------------------------------------------------------------------
    1 =    1.76035      2 =    1.76035      3 =    1.76035
-------------------------------------------------------------------------------

  High frequency refractive indices : 

-------------------------------------------------------------------------------
    1 =    1.22772      2 =    1.22772      3 =    1.22772
-------------------------------------------------------------------------------


  Time to end of optimisation =       0.0100 seconds


  Peak dynamic memory used =       0.50 MB 


  Timing analysis for GULP :

--------------------------------------------------------------------------------
  Task / Subroutine                                          Time (Seconds)
--------------------------------------------------------------------------------
  Calculation of reciprocal space energy and derivatives          0.0009
  Calculation of real space energy and derivatives                0.0061
--------------------------------------------------------------------------------
  Total CPU time                                                  0.0100
--------------------------------------------------------------------------------


  CIF file written as perov.cif                                               


  Job Finished at 13:58.54 22nd February   2017                               

