********************************************************************************
*                       GENERAL UTILITY LATTICE PROGRAM                        *
*                                 Julian Gale                                  *
*                      Nanochemistry Research Institute                        *
*                           Department of Chemistry                            *
*                    Curtin University, Western Australia                      *
********************************************************************************
* Version = 4.3.2 * Last modified =  3rd March 2015                            *
********************************************************************************
*  optimise     - perform optimisation run                                     *
*  conp         - constant pressure calculation                                *
*  property     - calculate properties for final geometry                      *
********************************************************************************

  Job Started  at 14:50.40 22nd February   2017                               

  Number of CPUs =     1


  Total number of configurations input =   1

********************************************************************************
*  Input for Configuration =   1                                               *
********************************************************************************

  Formula = K2Mn2F6                                                     

  Number of irreducible atoms/shells =       6


  Total number atoms/shells =      16

  Dimensionality = 3               :  Bulk   


  Symmetry :

  Crystal family                   :  Tetragonal  
  Crystal class  (Groth - 1921)    :  Ditetragonal Dipyramidal             

  Space group (centrosymmetric)    :  I 4/M C M       

  Patterson group                  :  I 4/m m m

  Cartesian lattice vectors (Angstroms) :

       -2.100000    2.100000    2.100000
        2.100000   -2.100000    2.100000
        2.100000    2.100000   -2.100000

  Primitive cell parameters :            Full cell parameters :

  a =   3.6373    alpha = 109.4712       a =   4.2000    alpha =  90.0000
  b =   3.6373    beta  = 109.4712       b =   4.2000    beta  =  90.0000
  c =   3.6373    gamma = 109.4712       c =   4.2000    gamma =  90.0000

  Initial volumes (Angstroms**3):

  Primitive cell =          37.044000    Full cell =          74.088000

  Temperature of configuration =  0.000     K 

  Pressure of configuration =         0.000 GPa 

  Fractional coordinates of asymmetric unit :

--------------------------------------------------------------------------------
   No.  Atomic       x           y          z         Charge      Occupancy
        Label      (Frac)      (Frac)     (Frac)        (e)         (Frac)  
--------------------------------------------------------------------------------
      1 K     c    0.000000    0.500000    0.250000     1.30000    1.000000    
      2 Mn    c    0.000000    0.000000    0.000000     2.00000    1.000000    
      3 F     c    0.240600 *  0.740600    0.000000     0.37800    1.000000    
      4 F     c    0.000000    0.000000    0.250000     0.37800    1.000000    
      5 F     s    0.240600 *  0.740600    0.000000    -1.47800    1.000000    
      6 F     s    0.000000    0.000000    0.250000    -1.47800    1.000000    
--------------------------------------------------------------------------------


  Constraints : 

--------------------------------------------------------------------------------
  Constraint no.      Unconstrained     Constrained    Coefficient    Offset
                         Variable         Variable
--------------------------------------------------------------------------------
           1              Strain 1        Strain 2       1.00000      0.0000
           2                 3 x             3 y         1.00000      0.5000
           3                 5 x             5 y         1.00000      0.5000
--------------------------------------------------------------------------------


********************************************************************************
*  General input information                                                   *
********************************************************************************

  Species output for all configurations : 

--------------------------------------------------------------------------------
  Species    Type    Atomic    Atomic    Charge       Radii (Angs)     Library
                     Number     Mass       (e)     Cova   Ionic  VDW   Symbol
--------------------------------------------------------------------------------
    K        Core       19      39.10   1.300000   1.330  0.000  2.800          
    Mn       Core       25      54.94   2.000000   1.350  0.000  2.010          
    F        Core        9      19.00   0.378000   0.710  0.000  1.300          
    F        Shell       9       0.00  -1.478000   0.710  0.000  1.300          
--------------------------------------------------------------------------------


  Lattice summation method               =    Ewald          (3-D)
                                         =    Parry          (2-D)
                                         =    Saunders et al (1-D)
  Accuracy factor for lattice sums       =   12.000


  Time limit = Infinity

  Maximum range for interatomic potentials =    100000.000000 Angstroms

  General interatomic potentials :

--------------------------------------------------------------------------------
Atom  Types   Potential         A         B         C         D     Cutoffs(Ang)
  1     2                                                            Min    Max 
--------------------------------------------------------------------------------
K    c K    c Buckingham    0.219E+04 0.192      0.00      0.00     0.000 10.000
Mn   c F    s Buckingham    0.148E+04 0.266      0.00      0.00     0.000 10.000
F    s F    s Buckingham     912.     0.271      20.0      0.00     0.000 10.000
K    c F    s Buckingham    0.352E+04 0.267      0.00      0.00     0.000 10.000
F    c F    s Spring (c-s)   28.0      0.00      0.00      0.00     0.000  0.800
--------------------------------------------------------------------------------

********************************************************************************
*  Output for configuration   1                                                *
********************************************************************************


  Components of energy : 

--------------------------------------------------------------------------------
  Interatomic potentials     =         246.60489277 eV
  Monopole - monopole (real) =         -58.99282539 eV
  Monopole - monopole (recip)=        -100.69306614 eV
  Monopole - monopole (total)=        -159.68589153 eV
--------------------------------------------------------------------------------
  Total lattice energy : 
    Primitive unit cell      =          86.91900124 eV
    Non-primitive unit cell  =         173.83800247 eV
--------------------------------------------------------------------------------
  Total lattice energy (in kJmol-1): 
    Primitive unit cell      =            8386.3549 kJ/(mole unit cells)
    Non-primitive unit cell  =           16772.7099 kJ/(mole unit cells)
--------------------------------------------------------------------------------


  Number of variables =        4

  Maximum number of calculations  =          1000
  Maximum Hessian update interval =            10
  Maximum step size               =   1.000000000
  Maximum parameter tolerance     =   0.000010000
  Maximum function  tolerance     =   0.000010000
  Maximum gradient  tolerance     =   0.001000000
  Maximum gradient  component     =   0.010000000

  Symmetry constrained optimisation

  Symmetry used for second derivatives

  Cell parameters to be optimised using strains

  Newton-Raphson optimiser to be used

  BFGS hessian update to be used

  Start of bulk optimisation :

  Cycle:      0 Energy:        86.919001  Gnorm:    209.569866  CPU:    0.014
  ** Hessian calculated **
  Cycle:      1 Energy:       -91.077408  Gnorm:      5.684670  CPU:    0.037
  ** Hessian calculated **
  Cycle:      2 Energy:       -91.517779  Gnorm:      2.213087  CPU:    0.053
  Cycle:      3 Energy:       -91.527910  Gnorm:      0.919342  CPU:    0.067
  Cycle:      4 Energy:       -91.529909  Gnorm:      0.103696  CPU:    0.079
  Cycle:      5 Energy:       -91.530265  Gnorm:      0.157347  CPU:    0.087
  Cycle:      6 Energy:       -91.530442  Gnorm:      0.075756  CPU:    0.098
  Cycle:      7 Energy:       -91.530462  Gnorm:      0.004482  CPU:    0.107
  Cycle:      8 Energy:       -91.530462  Gnorm:      0.001882  CPU:    0.115


  **** Optimisation achieved ****


  Final energy =     -91.53046213 eV
  Final Gnorm  =       0.00012113

  Components of energy : 

--------------------------------------------------------------------------------
  Interatomic potentials     =          12.49248361 eV
  Monopole - monopole (real) =         -36.47842292 eV
  Monopole - monopole (recip)=         -67.54452282 eV
  Monopole - monopole (total)=        -104.02294573 eV
--------------------------------------------------------------------------------
  Total lattice energy : 
    Primitive unit cell      =         -91.53046213 eV
    Non-primitive unit cell  =        -183.06092425 eV
--------------------------------------------------------------------------------
  Total lattice energy (in kJmol-1): 
    Primitive unit cell      =           -8831.2904 kJ/(mole unit cells)
    Non-primitive unit cell  =          -17662.5808 kJ/(mole unit cells)
--------------------------------------------------------------------------------

  Final asymmetric unit coordinates :

--------------------------------------------------------------------------------
   No.  Atomic        x           y           z         Radius
        Label       (Frac)      (Frac)      (Frac)       (Angs) 
--------------------------------------------------------------------------------
     1  K     c     0.000000    0.500000    0.250000    0.000000
     2  Mn    c     0.000000    0.000000    0.000000    0.000000
     3  F     c     0.249997    0.749997    0.000000    0.000000
     4  F     c     0.000000    0.000000    0.250000    0.000000
     5  F     s     0.249998    0.749998    0.000000    0.000000
     6  F     s     0.000000    0.000000    0.250000    0.000000
--------------------------------------------------------------------------------

  Final Cartesian lattice vectors (Angstroms) :

       -2.797366    2.797366    3.956084
        2.797366   -2.797366    3.956084
        2.797366    2.797366   -3.956084


  Final cell parameters and derivatives :

--------------------------------------------------------------------------------
       a            5.594739 Angstrom     dE/de1(xx)    -0.000306 eV/strain
       b            5.594739 Angstrom     dE/de2(yy)     0.000000 eV/strain
       c            5.594739 Angstrom     dE/de3(zz)     0.000131 eV/strain
       alpha      120.000097 Degrees      dE/de4(yz)     0.000000 eV/strain
       beta       120.000097 Degrees      dE/de5(xz)     0.000000 eV/strain
       gamma       89.999832 Degrees      dE/de6(xy)     0.000000 eV/strain
--------------------------------------------------------------------------------

  Primitive cell volume =           123.829448 Angs**3

  Density of cell =      4.050923 g/cm**3

  Non-primitive lattice parameters :

  a    =     5.594731  b   =     5.594731  c    =     7.912168
  alpha=    90.000000  beta=    90.000000  gamma=    90.000000

  Non-primitive cell volume =           247.658897 Angs**3


  Final internal derivatives :

--------------------------------------------------------------------------------
   No.  Atomic          a             b             c           Radius
        Label          (eV)          (eV)          (eV)        (eV/Angs)
--------------------------------------------------------------------------------
      1 K     c       0.000000      0.000000      0.000000      0.000000
      2 Mn    c       0.000000      0.000000      0.000000      0.000000
      3 F     c       0.000236      0.000000      0.000000      0.000000
      4 F     c       0.000000      0.000000      0.000000      0.000000
      5 F     s      -0.000261      0.000000      0.000000      0.000000
      6 F     s       0.000000      0.000000      0.000000      0.000000
--------------------------------------------------------------------------------
  Maximum abs         0.000261      0.000000      0.000000      0.000000
--------------------------------------------------------------------------------


  Born effective charge tensors : 

-------------------------------------------------------------------------------
  Atom             x           y             z
-------------------------------------------------------------------------------
   1 K     x       1.3509      0.0000      0.0000
           y       0.0000      1.3509      0.0000
           z       0.0000      0.0000      1.3509
-------------------------------------------------------------------------------
   2 Mn    x       1.5194      0.0000      0.0000
           y       0.0000      1.5194      0.0000
           z       0.0000      0.0000      1.5194
-------------------------------------------------------------------------------
   3 F     x      -0.9524     -0.0131      0.0000
           y      -0.0131     -0.9524      0.0000
           z       0.0000      0.0000     -0.9655
-------------------------------------------------------------------------------
   4 F     x      -0.9655      0.0000      0.0000
           y       0.0000     -0.9655      0.0000
           z       0.0000      0.0000     -0.9393
-------------------------------------------------------------------------------




  Elastic Constant Matrix: (Units=GPa)

-------------------------------------------------------------------------------
  Indices      1         2         3         4         5         6    
-------------------------------------------------------------------------------
       1    171.0289   62.6097   54.2097    0.0000    0.0000    0.0000
       2     62.6097  171.0289   54.2097    0.0000    0.0000    0.0000
       3     54.2097   54.2097  179.4256    0.0000    0.0000    0.0000
       4      0.0000    0.0000    0.0000   54.2097    0.0000    0.0000
       5      0.0000    0.0000    0.0000    0.0000   54.2097    0.0000
       6      0.0000    0.0000    0.0000    0.0000    0.0000   62.6095
-------------------------------------------------------------------------------


  Elastic Compliance Matrix: (Units=1/GPa)

-------------------------------------------------------------------------------
  Indices      1         2         3         4         5         6    
-------------------------------------------------------------------------------
       1    0.007101 -0.002123 -0.001504  0.000000  0.000000  0.000000
       2   -0.002123  0.007101 -0.001504  0.000000  0.000000  0.000000
       3   -0.001504 -0.001504  0.006482  0.000000  0.000000  0.000000
       4    0.000000  0.000000  0.000000  0.018447  0.000000  0.000000
       5    0.000000  0.000000  0.000000  0.000000  0.018447  0.000000
       6    0.000000  0.000000  0.000000  0.000000  0.000000  0.015972
-------------------------------------------------------------------------------

  Mechanical properties :

-------------------------------------------------------------------------------
  Convention :                    Reuss         Voigt         Hill
-------------------------------------------------------------------------------
  Bulk  Modulus (GPa)     =      95.94907      95.94907      95.94907
  Shear Modulus (GPa)     =      57.28363      57.56940      57.42651
-------------------------------------------------------------------------------
  Velocity S-wave (km/s)  =       3.76044       3.76980       3.76512
  Velocity P-wave (km/s)  =       6.52229       6.52949       6.52589
-------------------------------------------------------------------------------
  Compressibility (1/GPa) =    0.01042220
-------------------------------------------------------------------------------
  Stress axis :                     x             y             z
-------------------------------------------------------------------------------
  Youngs Moduli (GPa)     =     140.83011     140.83011     154.26969
-------------------------------------------------------------------------------
  Poissons Ratio (x)      =                     0.29894       0.23202
  Poissons Ratio (y)      =       0.29894                     0.23202
  Poissons Ratio (z)      =       0.21181       0.21181
-------------------------------------------------------------------------------


  Piezoelectric Strain Matrix: (Units=C/m**2)

-------------------------------------------------------------------------------
  Indices      1         2         3         4         5         6    
-------------------------------------------------------------------------------
       x     0.00000   0.00000   0.00000   0.00000   0.00000   0.00000
       y     0.00000   0.00000   0.00000   0.00000   0.00000   0.00000
       z     0.00000   0.00000   0.00000   0.00000   0.00000   0.00000
-------------------------------------------------------------------------------


  Piezoelectric Stress Matrix: (Units=10**-11 C/N)

-------------------------------------------------------------------------------
  Indices      1         2         3         4         5         6    
-------------------------------------------------------------------------------
       x     0.00000   0.00000   0.00000   0.00000   0.00000   0.00000
       y     0.00000   0.00000   0.00000   0.00000   0.00000   0.00000
       z     0.00000   0.00000   0.00000   0.00000   0.00000   0.00000
-------------------------------------------------------------------------------


  Static dielectric constant tensor : 

-------------------------------------------------------------------------------
              x         y         z
-------------------------------------------------------------------------------
       x     6.14597   0.00000   0.00000
       y     0.00000   6.14597   0.00000
       z     0.00000   0.00000   6.14608
--------------------------------------------------------------------------------

  High frequency dielectric constant tensor : 

-------------------------------------------------------------------------------
              x         y         z
-------------------------------------------------------------------------------
       x     1.65623   0.00000   0.00000
       y     0.00000   1.65623   0.00000
       z     0.00000   0.00000   1.65624
-------------------------------------------------------------------------------

  Static refractive indices : 

-------------------------------------------------------------------------------
    1 =    2.47911      2 =    2.47911      3 =    2.47913
-------------------------------------------------------------------------------

  High frequency refractive indices : 

-------------------------------------------------------------------------------
    1 =    1.28695      2 =    1.28695      3 =    1.28695
-------------------------------------------------------------------------------


  Time to end of optimisation =       0.1334 seconds


  Peak dynamic memory used =       0.59 MB 


  Timing analysis for GULP :

--------------------------------------------------------------------------------
  Task / Subroutine                                          Time (Seconds)
--------------------------------------------------------------------------------
  Calculation of reciprocal space energy and derivatives          0.0017
  Calculation of reciprocal space energy using symmetry           0.0048
  Calculation of real space energy and derivatives                0.0075
  Calculation of real space energy using symmetry                 0.1146
  Symmetry generation of equivalent positions                     0.0005
--------------------------------------------------------------------------------
  Total CPU time                                                  0.1335
--------------------------------------------------------------------------------


  CIF file written as perov.cif                                               


  Job Finished at 14:50.41 22nd February   2017                               

