********************************************************************************
*                       GENERAL UTILITY LATTICE PROGRAM                        *
*                                 Julian Gale                                  *
*                      Nanochemistry Research Institute                        *
*                           Department of Chemistry                            *
*                    Curtin University, Western Australia                      *
********************************************************************************
* Version = 4.3.2 * Last modified =  3rd March 2015                            *
********************************************************************************
*  optimise     - perform optimisation run                                     *
*  conp         - constant pressure calculation                                *
*  property     - calculate properties for final geometry                      *
********************************************************************************

  Job Started  at 14:50.39 22nd February   2017                               

  Number of CPUs =     1


  Total number of configurations input =   1

********************************************************************************
*  Input for Configuration =   1                                               *
********************************************************************************

  Formula = K2Mn2F6                                                     

  Number of irreducible atoms/shells =       6


  Total number atoms/shells =      16

  Dimensionality = 3               :  Bulk   


  Symmetry :

  Crystal family                   :  Tetragonal  
  Crystal class  (Groth - 1921)    :  Ditetragonal Dipyramidal             

  Space group (centrosymmetric)    :  I 4/M C M       

  Patterson group                  :  I 4/m m m

  Cartesian lattice vectors (Angstroms) :

       -2.100000    2.100000    2.100000
        2.100000   -2.100000    2.100000
        2.100000    2.100000   -2.100000

  Primitive cell parameters :            Full cell parameters :

  a =   3.6373    alpha = 109.4712       a =   4.2000    alpha =  90.0000
  b =   3.6373    beta  = 109.4712       b =   4.2000    beta  =  90.0000
  c =   3.6373    gamma = 109.4712       c =   4.2000    gamma =  90.0000

  Initial volumes (Angstroms**3):

  Primitive cell =          37.044000    Full cell =          74.088000

  Temperature of configuration =  0.000     K 

  Pressure of configuration =         0.000 GPa 

  Fractional coordinates of asymmetric unit :

--------------------------------------------------------------------------------
   No.  Atomic       x           y          z         Charge      Occupancy
        Label      (Frac)      (Frac)     (Frac)        (e)         (Frac)  
--------------------------------------------------------------------------------
      1 K     c    0.000000    0.500000    0.250000     1.20000    1.000000    
      2 Mn    c    0.000000    0.000000    0.000000     1.60000    1.000000    
      3 F     c    0.240600 *  0.740600    0.000000     0.37800    1.000000    
      4 F     c    0.000000    0.000000    0.250000     0.37800    1.000000    
      5 F     s    0.240600 *  0.740600    0.000000    -1.31133    1.000000    
      6 F     s    0.000000    0.000000    0.250000    -1.31133    1.000000    
--------------------------------------------------------------------------------


  Constraints : 

--------------------------------------------------------------------------------
  Constraint no.      Unconstrained     Constrained    Coefficient    Offset
                         Variable         Variable
--------------------------------------------------------------------------------
           1              Strain 1        Strain 2       1.00000      0.0000
           2                 3 x             3 y         1.00000      0.5000
           3                 5 x             5 y         1.00000      0.5000
--------------------------------------------------------------------------------


********************************************************************************
*  General input information                                                   *
********************************************************************************

  Species output for all configurations : 

--------------------------------------------------------------------------------
  Species    Type    Atomic    Atomic    Charge       Radii (Angs)     Library
                     Number     Mass       (e)     Cova   Ionic  VDW   Symbol
--------------------------------------------------------------------------------
    K        Core       19      39.10   1.200000   1.330  0.000  2.800          
    Mn       Core       25      54.94   1.600000   1.350  0.000  2.010          
    F        Core        9      19.00   0.378000   0.710  0.000  1.300          
    F        Shell       9       0.00  -1.311333   0.710  0.000  1.300          
--------------------------------------------------------------------------------


  Lattice summation method               =    Ewald          (3-D)
                                         =    Parry          (2-D)
                                         =    Saunders et al (1-D)
  Accuracy factor for lattice sums       =   12.000


  Time limit = Infinity

  Maximum range for interatomic potentials =    100000.000000 Angstroms

  General interatomic potentials :

--------------------------------------------------------------------------------
Atom  Types   Potential         A         B         C         D     Cutoffs(Ang)
  1     2                                                            Min    Max 
--------------------------------------------------------------------------------
K    c K    c Buckingham    0.219E+04 0.192      0.00      0.00     0.000 10.000
Mn   c F    s Buckingham    0.148E+04 0.266      0.00      0.00     0.000 10.000
F    s F    s Buckingham     912.     0.271      20.0      0.00     0.000 10.000
K    c F    s Buckingham    0.352E+04 0.267      0.00      0.00     0.000 10.000
F    c F    s Spring (c-s)   22.0      0.00      0.00      0.00     0.000  0.800
--------------------------------------------------------------------------------

********************************************************************************
*  Output for configuration   1                                                *
********************************************************************************


  Components of energy : 

--------------------------------------------------------------------------------
  Interatomic potentials     =         246.60489277 eV
  Monopole - monopole (real) =         -40.81951693 eV
  Monopole - monopole (recip)=         -71.31996988 eV
  Monopole - monopole (total)=        -112.13948681 eV
--------------------------------------------------------------------------------
  Total lattice energy : 
    Primitive unit cell      =         134.46540596 eV
    Non-primitive unit cell  =         268.93081193 eV
--------------------------------------------------------------------------------
  Total lattice energy (in kJmol-1): 
    Primitive unit cell      =           12973.8562 kJ/(mole unit cells)
    Non-primitive unit cell  =           25947.7124 kJ/(mole unit cells)
--------------------------------------------------------------------------------


  Number of variables =        4

  Maximum number of calculations  =          1000
  Maximum Hessian update interval =            10
  Maximum step size               =   1.000000000
  Maximum parameter tolerance     =   0.000010000
  Maximum function  tolerance     =   0.000010000
  Maximum gradient  tolerance     =   0.001000000
  Maximum gradient  component     =   0.010000000

  Symmetry constrained optimisation

  Symmetry used for second derivatives

  Cell parameters to be optimised using strains

  Newton-Raphson optimiser to be used

  BFGS hessian update to be used

  Start of bulk optimisation :

  Cycle:      0 Energy:       134.465406  Gnorm:    217.943167  CPU:    0.010
  ** Hessian calculated **
  Cycle:      1 Energy:       -60.522790  Gnorm:      7.448466  CPU:    0.032
  ** Hessian calculated **
  Cycle:      2 Energy:       -61.474381  Gnorm:      4.504000  CPU:    0.043
  ** Hessian calculated **
  Cycle:      3 Energy:       -61.542937  Gnorm:      1.914387  CPU:    0.055
  Cycle:      4 Energy:       -61.551992  Gnorm:      0.162253  CPU:    0.063
  Cycle:      5 Energy:       -61.552617  Gnorm:      0.063005  CPU:    0.072
  Cycle:      6 Energy:       -61.552637  Gnorm:      0.007887  CPU:    0.079
  Cycle:      7 Energy:       -61.552637  Gnorm:      0.001223  CPU:    0.087


  **** Optimisation achieved ****


  Final energy =     -61.55263702 eV
  Final Gnorm  =       0.00002125

  Components of energy : 

--------------------------------------------------------------------------------
  Interatomic potentials     =           7.81875161 eV
  Monopole - monopole (real) =         -10.20768297 eV
  Monopole - monopole (recip)=         -59.16370566 eV
  Monopole - monopole (total)=         -69.37138863 eV
--------------------------------------------------------------------------------
  Total lattice energy : 
    Primitive unit cell      =         -61.55263702 eV
    Non-primitive unit cell  =        -123.10527404 eV
--------------------------------------------------------------------------------
  Total lattice energy (in kJmol-1): 
    Primitive unit cell      =           -5938.8886 kJ/(mole unit cells)
    Non-primitive unit cell  =          -11877.7771 kJ/(mole unit cells)
--------------------------------------------------------------------------------

  Final asymmetric unit coordinates :

--------------------------------------------------------------------------------
   No.  Atomic        x           y           z         Radius
        Label       (Frac)      (Frac)      (Frac)       (Angs) 
--------------------------------------------------------------------------------
     1  K     c     0.000000    0.500000    0.250000    0.000000
     2  Mn    c     0.000000    0.000000    0.000000    0.000000
     3  F     c     0.296455    0.796455    0.000000    0.000000
     4  F     c     0.000000    0.000000    0.250000    0.000000
     5  F     s     0.296014    0.796014    0.000000    0.000000
     6  F     s     0.000000    0.000000    0.250000    0.000000
--------------------------------------------------------------------------------

  Final Cartesian lattice vectors (Angstroms) :

       -2.931864    2.931864    4.211733
        2.931864   -2.931864    4.211733
        2.931864    2.931864   -4.211733


  Final cell parameters and derivatives :

--------------------------------------------------------------------------------
       a            5.910191 Angstrom     dE/de1(xx)    -0.000033 eV/strain
       b            5.910191 Angstrom     dE/de2(yy)     0.000000 eV/strain
       c            5.910191 Angstrom     dE/de3(zz)     0.000028 eV/strain
       alpha      120.519424 Degrees      dE/de4(yz)     0.000000 eV/strain
       beta       120.519424 Degrees      dE/de5(xz)     0.000000 eV/strain
       gamma       89.102661 Degrees      dE/de6(xy)     0.000000 eV/strain
--------------------------------------------------------------------------------

  Primitive cell volume =           144.813348 Angs**3

  Density of cell =      3.463932 g/cm**3

  Non-primitive lattice parameters :

  a    =     5.863729  b   =     5.863729  c    =     8.423467
  alpha=    90.000000  beta=    90.000000  gamma=    90.000000

  Non-primitive cell volume =           289.626696 Angs**3


  Final internal derivatives :

--------------------------------------------------------------------------------
   No.  Atomic          a             b             c           Radius
        Label          (eV)          (eV)          (eV)        (eV/Angs)
--------------------------------------------------------------------------------
      1 K     c       0.000000      0.000000      0.000000      0.000000
      2 Mn    c       0.000000      0.000000      0.000000      0.000000
      3 F     c      -0.000026      0.000000      0.000000      0.000000
      4 F     c       0.000000      0.000000      0.000000      0.000000
      5 F     s       0.000068      0.000000      0.000000      0.000000
      6 F     s       0.000000      0.000000      0.000000      0.000000
--------------------------------------------------------------------------------
  Maximum abs         0.000068      0.000000      0.000000      0.000000
--------------------------------------------------------------------------------


  Born effective charge tensors : 

-------------------------------------------------------------------------------
  Atom             x           y             z
-------------------------------------------------------------------------------
   1 K     x       1.2448      0.0000      0.0000
           y       0.0000      1.2448      0.0000
           z       0.0000      0.0000      1.2072
-------------------------------------------------------------------------------
   2 Mn    x       1.2458      0.0000      0.0000
           y       0.0000      1.2458      0.0000
           z       0.0000      0.0000      1.2312
-------------------------------------------------------------------------------
   3 F     x      -0.8143     -0.0274      0.0000
           y      -0.0274     -0.8143      0.0000
           z       0.0000      0.0000     -0.8315
-------------------------------------------------------------------------------
   4 F     x      -0.8619      0.0000      0.0000
           y       0.0000     -0.8619      0.0000
           z       0.0000      0.0000     -0.7753
-------------------------------------------------------------------------------




  Elastic Constant Matrix: (Units=GPa)

-------------------------------------------------------------------------------
  Indices      1         2         3         4         5         6    
-------------------------------------------------------------------------------
       1     91.8143   41.0955   36.1163    0.0000    0.0000    0.0000
       2     41.0955   91.8143   36.1163    0.0000    0.0000    0.0000
       3     36.1163   36.1163  118.4283    0.0000    0.0000    0.0000
       4      0.0000    0.0000    0.0000   35.7171    0.0000    0.0000
       5      0.0000    0.0000    0.0000    0.0000   35.7171    0.0000
       6      0.0000    0.0000    0.0000    0.0000    0.0000   35.5109
-------------------------------------------------------------------------------


  Elastic Compliance Matrix: (Units=1/GPa)

-------------------------------------------------------------------------------
  Indices      1         2         3         4         5         6    
-------------------------------------------------------------------------------
       1    0.014368 -0.005349 -0.002750  0.000000  0.000000  0.000000
       2   -0.005349  0.014368 -0.002750  0.000000  0.000000  0.000000
       3   -0.002750 -0.002750  0.010121  0.000000  0.000000  0.000000
       4    0.000000  0.000000  0.000000  0.027998  0.000000  0.000000
       5    0.000000  0.000000  0.000000  0.000000  0.027998  0.000000
       6    0.000000  0.000000  0.000000  0.000000  0.000000  0.028160
-------------------------------------------------------------------------------

  Mechanical properties :

-------------------------------------------------------------------------------
  Convention :                    Reuss         Voigt         Hill
-------------------------------------------------------------------------------
  Bulk  Modulus (GPa)     =      58.28424      58.74591      58.51508
  Shear Modulus (GPa)     =      33.23785      33.97096      33.60441
-------------------------------------------------------------------------------
  Velocity S-wave (km/s)  =       3.09765       3.13162       3.11468
  Velocity P-wave (km/s)  =       5.44242       5.48045       5.46147
-------------------------------------------------------------------------------
  Compressibility (1/GPa) =    0.01715730
-------------------------------------------------------------------------------
  Stress axis :                     x             y             z
-------------------------------------------------------------------------------
  Youngs Moduli (GPa)     =      69.60113      69.60113      98.80011
-------------------------------------------------------------------------------
  Poissons Ratio (x)      =                     0.37229       0.27174
  Poissons Ratio (y)      =       0.37229                     0.27174
  Poissons Ratio (z)      =       0.19143       0.19143
-------------------------------------------------------------------------------


  Piezoelectric Strain Matrix: (Units=C/m**2)

-------------------------------------------------------------------------------
  Indices      1         2         3         4         5         6    
-------------------------------------------------------------------------------
       x     0.00000   0.00000   0.00000   0.00000   0.00000   0.00000
       y     0.00000   0.00000   0.00000   0.00000   0.00000   0.00000
       z     0.00000   0.00000   0.00000   0.00000   0.00000   0.00000
-------------------------------------------------------------------------------


  Piezoelectric Stress Matrix: (Units=10**-11 C/N)

-------------------------------------------------------------------------------
  Indices      1         2         3         4         5         6    
-------------------------------------------------------------------------------
       x     0.00000   0.00000   0.00000   0.00000   0.00000   0.00000
       y     0.00000   0.00000   0.00000   0.00000   0.00000   0.00000
       z     0.00000   0.00000   0.00000   0.00000   0.00000   0.00000
-------------------------------------------------------------------------------


  Static dielectric constant tensor : 

-------------------------------------------------------------------------------
              x         y         z
-------------------------------------------------------------------------------
       x     6.98057   0.00000   0.00000
       y     0.00000   6.98057   0.00000
       z     0.00000   0.00000   4.37163
--------------------------------------------------------------------------------

  High frequency dielectric constant tensor : 

-------------------------------------------------------------------------------
              x         y         z
-------------------------------------------------------------------------------
       x     1.57164   0.00000   0.00000
       y     0.00000   1.57164   0.00000
       z     0.00000   0.00000   1.56120
-------------------------------------------------------------------------------

  Static refractive indices : 

-------------------------------------------------------------------------------
    1 =    2.09085      2 =    2.64208      3 =    2.64208
-------------------------------------------------------------------------------

  High frequency refractive indices : 

-------------------------------------------------------------------------------
    1 =    1.24948      2 =    1.25365      3 =    1.25365
-------------------------------------------------------------------------------


  Time to end of optimisation =       0.1022 seconds


  Peak dynamic memory used =       0.59 MB 


  Timing analysis for GULP :

--------------------------------------------------------------------------------
  Task / Subroutine                                          Time (Seconds)
--------------------------------------------------------------------------------
  Calculation of reciprocal space energy and derivatives          0.0012
  Calculation of reciprocal space energy using symmetry           0.0038
  Calculation of real space energy and derivatives                0.0067
  Calculation of real space energy using symmetry                 0.0867
  Symmetry generation of equivalent positions                     0.0004
--------------------------------------------------------------------------------
  Total CPU time                                                  0.1023
--------------------------------------------------------------------------------


  CIF file written as perov.cif                                               


  Job Finished at 14:50.39 22nd February   2017                               

