********************************************************************************
*                       GENERAL UTILITY LATTICE PROGRAM                        *
*                                 Julian Gale                                  *
*                      Nanochemistry Research Institute                        *
*                           Department of Chemistry                            *
*                    Curtin University, Western Australia                      *
********************************************************************************
* Version = 4.3.2 * Last modified =  3rd March 2015                            *
********************************************************************************
*  optimise     - perform optimisation run                                     *
*  conp         - constant pressure calculation                                *
*  property     - calculate properties for final geometry                      *
********************************************************************************

  Job Started  at 14:50.38 22nd February   2017                               

  Number of CPUs =     1


  Total number of configurations input =   1

********************************************************************************
*  Input for Configuration =   1                                               *
********************************************************************************

  Formula = K2Mn2F6                                                     

  Number of irreducible atoms/shells =       6


  Total number atoms/shells =      16

  Dimensionality = 3               :  Bulk   


  Symmetry :

  Crystal family                   :  Tetragonal  
  Crystal class  (Groth - 1921)    :  Ditetragonal Dipyramidal             

  Space group (centrosymmetric)    :  I 4/M C M       

  Patterson group                  :  I 4/m m m

  Cartesian lattice vectors (Angstroms) :

       -2.100000    2.100000    2.100000
        2.100000   -2.100000    2.100000
        2.100000    2.100000   -2.100000

  Primitive cell parameters :            Full cell parameters :

  a =   3.6373    alpha = 109.4712       a =   4.2000    alpha =  90.0000
  b =   3.6373    beta  = 109.4712       b =   4.2000    beta  =  90.0000
  c =   3.6373    gamma = 109.4712       c =   4.2000    gamma =  90.0000

  Initial volumes (Angstroms**3):

  Primitive cell =          37.044000    Full cell =          74.088000

  Temperature of configuration =  0.000     K 

  Pressure of configuration =         0.000 GPa 

  Fractional coordinates of asymmetric unit :

--------------------------------------------------------------------------------
   No.  Atomic       x           y          z         Charge      Occupancy
        Label      (Frac)      (Frac)     (Frac)        (e)         (Frac)  
--------------------------------------------------------------------------------
      1 K     c    0.000000    0.500000    0.250000     1.10000    1.000000    
      2 Mn    c    0.000000    0.000000    0.000000     2.30000    1.000000    
      3 F     c    0.240600 *  0.740600    0.000000     0.37800    1.000000    
      4 F     c    0.000000    0.000000    0.250000     0.37800    1.000000    
      5 F     s    0.240600 *  0.740600    0.000000    -1.51133    1.000000    
      6 F     s    0.000000    0.000000    0.250000    -1.51133    1.000000    
--------------------------------------------------------------------------------


  Constraints : 

--------------------------------------------------------------------------------
  Constraint no.      Unconstrained     Constrained    Coefficient    Offset
                         Variable         Variable
--------------------------------------------------------------------------------
           1              Strain 1        Strain 2       1.00000      0.0000
           2                 3 x             3 y         1.00000      0.5000
           3                 5 x             5 y         1.00000      0.5000
--------------------------------------------------------------------------------


********************************************************************************
*  General input information                                                   *
********************************************************************************

  Species output for all configurations : 

--------------------------------------------------------------------------------
  Species    Type    Atomic    Atomic    Charge       Radii (Angs)     Library
                     Number     Mass       (e)     Cova   Ionic  VDW   Symbol
--------------------------------------------------------------------------------
    K        Core       19      39.10   1.100000   1.330  0.000  2.800          
    Mn       Core       25      54.94   2.300000   1.350  0.000  2.010          
    F        Core        9      19.00   0.378000   0.710  0.000  1.300          
    F        Shell       9       0.00  -1.511333   0.710  0.000  1.300          
--------------------------------------------------------------------------------


  Lattice summation method               =    Ewald          (3-D)
                                         =    Parry          (2-D)
                                         =    Saunders et al (1-D)
  Accuracy factor for lattice sums       =   12.000


  Time limit = Infinity

  Maximum range for interatomic potentials =    100000.000000 Angstroms

  General interatomic potentials :

--------------------------------------------------------------------------------
Atom  Types   Potential         A         B         C         D     Cutoffs(Ang)
  1     2                                                            Min    Max 
--------------------------------------------------------------------------------
K    c K    c Buckingham    0.219E+04 0.192      0.00      0.00     0.000 10.000
Mn   c F    s Buckingham    0.148E+04 0.266      0.00      0.00     0.000 10.000
F    s F    s Buckingham     912.     0.271      20.0      0.00     0.000 10.000
K    c F    s Buckingham    0.352E+04 0.267      0.00      0.00     0.000 10.000
F    c F    s Spring (c-s)   29.3      0.00      0.00      0.00     0.000  0.800
--------------------------------------------------------------------------------

********************************************************************************
*  Output for configuration   1                                                *
********************************************************************************


  Components of energy : 

--------------------------------------------------------------------------------
  Interatomic potentials     =         246.60489277 eV
  Monopole - monopole (real) =         -67.66356349 eV
  Monopole - monopole (recip)=        -112.00984752 eV
  Monopole - monopole (total)=        -179.67341101 eV
--------------------------------------------------------------------------------
  Total lattice energy : 
    Primitive unit cell      =          66.93148176 eV
    Non-primitive unit cell  =         133.86296352 eV
--------------------------------------------------------------------------------
  Total lattice energy (in kJmol-1): 
    Primitive unit cell      =            6457.8648 kJ/(mole unit cells)
    Non-primitive unit cell  =           12915.7297 kJ/(mole unit cells)
--------------------------------------------------------------------------------


  Number of variables =        4

  Maximum number of calculations  =          1000
  Maximum Hessian update interval =            10
  Maximum step size               =   1.000000000
  Maximum parameter tolerance     =   0.000010000
  Maximum function  tolerance     =   0.000010000
  Maximum gradient  tolerance     =   0.001000000
  Maximum gradient  component     =   0.010000000

  Symmetry constrained optimisation

  Symmetry used for second derivatives

  Cell parameters to be optimised using strains

  Newton-Raphson optimiser to be used

  BFGS hessian update to be used

  Start of bulk optimisation :

  Cycle:      0 Energy:        66.931482  Gnorm:    206.372909  CPU:    0.010
  ** Hessian calculated **
  Cycle:      1 Energy:      -103.973136  Gnorm:      4.501686  CPU:    0.031
  ** Hessian calculated **
  Cycle:      2 Energy:      -104.330543  Gnorm:      0.598857  CPU:    0.043
  Cycle:      3 Energy:      -104.340992  Gnorm:      0.146997  CPU:    0.051
  Cycle:      4 Energy:      -104.341532  Gnorm:      0.013166  CPU:    0.058
  Cycle:      5 Energy:      -104.341533  Gnorm:      0.001388  CPU:    0.066


  **** Optimisation achieved ****


  Final energy =    -104.34153329 eV
  Final Gnorm  =       0.00009509

  Components of energy : 

--------------------------------------------------------------------------------
  Interatomic potentials     =          14.50853921 eV
  Monopole - monopole (real) =         -42.37833495 eV
  Monopole - monopole (recip)=         -76.47173755 eV
  Monopole - monopole (total)=        -118.85007250 eV
--------------------------------------------------------------------------------
  Total lattice energy : 
    Primitive unit cell      =        -104.34153329 eV
    Non-primitive unit cell  =        -208.68306658 eV
--------------------------------------------------------------------------------
  Total lattice energy (in kJmol-1): 
    Primitive unit cell      =          -10067.3630 kJ/(mole unit cells)
    Non-primitive unit cell  =          -20134.7259 kJ/(mole unit cells)
--------------------------------------------------------------------------------

  Final asymmetric unit coordinates :

--------------------------------------------------------------------------------
   No.  Atomic        x           y           z         Radius
        Label       (Frac)      (Frac)      (Frac)       (Angs) 
--------------------------------------------------------------------------------
     1  K     c     0.000000    0.500000    0.250000    0.000000
     2  Mn    c     0.000000    0.000000    0.000000    0.000000
     3  F     c     0.250001    0.750001    0.000000    0.000000
     4  F     c     0.000000    0.000000    0.250000    0.000000
     5  F     s     0.250001    0.750001    0.000000    0.000000
     6  F     s     0.000000    0.000000    0.250000    0.000000
--------------------------------------------------------------------------------

  Final Cartesian lattice vectors (Angstroms) :

       -2.747081    2.747081    3.884951
        2.747081   -2.747081    3.884951
        2.747081    2.747081   -3.884951


  Final cell parameters and derivatives :

--------------------------------------------------------------------------------
       a            5.494156 Angstrom     dE/de1(xx)     0.000038 eV/strain
       b            5.494156 Angstrom     dE/de2(yy)     0.000000 eV/strain
       c            5.494156 Angstrom     dE/de3(zz)    -0.000191 eV/strain
       alpha      119.999927 Degrees      dE/de4(yz)     0.000000 eV/strain
       beta       119.999927 Degrees      dE/de5(xz)     0.000000 eV/strain
       gamma       90.000126 Degrees      dE/de6(xy)     0.000000 eV/strain
--------------------------------------------------------------------------------

  Primitive cell volume =           117.270435 Angs**3

  Density of cell =      4.277494 g/cm**3

  Non-primitive lattice parameters :

  a    =     5.494162  b   =     5.494162  c    =     7.769902
  alpha=    90.000000  beta=    90.000000  gamma=    90.000000

  Non-primitive cell volume =           234.540870 Angs**3


  Final internal derivatives :

--------------------------------------------------------------------------------
   No.  Atomic          a             b             c           Radius
        Label          (eV)          (eV)          (eV)        (eV/Angs)
--------------------------------------------------------------------------------
      1 K     c       0.000000      0.000000      0.000000      0.000000
      2 Mn    c       0.000000      0.000000      0.000000      0.000000
      3 F     c      -0.000120      0.000000      0.000000      0.000000
      4 F     c       0.000000      0.000000      0.000000      0.000000
      5 F     s       0.000304      0.000000      0.000000      0.000000
      6 F     s       0.000000      0.000000      0.000000      0.000000
--------------------------------------------------------------------------------
  Maximum abs         0.000304      0.000000      0.000000      0.000000
--------------------------------------------------------------------------------


  Born effective charge tensors : 

-------------------------------------------------------------------------------
  Atom             x           y             z
-------------------------------------------------------------------------------
   1 K     x       1.0766      0.0000      0.0000
           y       0.0000      1.0766      0.0000
           z       0.0000      0.0000      1.0766
-------------------------------------------------------------------------------
   2 Mn    x       1.8404      0.0000      0.0000
           y       0.0000      1.8404      0.0000
           z       0.0000      0.0000      1.8404
-------------------------------------------------------------------------------
   3 F     x      -0.9933      0.0629      0.0000
           y       0.0629     -0.9933      0.0000
           z       0.0000      0.0000     -0.9304
-------------------------------------------------------------------------------
   4 F     x      -0.9304      0.0000      0.0000
           y       0.0000     -0.9304      0.0000
           z       0.0000      0.0000     -1.0561
-------------------------------------------------------------------------------




  Elastic Constant Matrix: (Units=GPa)

-------------------------------------------------------------------------------
  Indices      1         2         3         4         5         6    
-------------------------------------------------------------------------------
       1    205.2718   65.3394   69.9663    0.0000    0.0000    0.0000
       2     65.3394  205.2718   69.9663    0.0000    0.0000    0.0000
       3     69.9663   69.9663  200.6476    0.0000    0.0000    0.0000
       4      0.0000    0.0000    0.0000   69.9662    0.0000    0.0000
       5      0.0000    0.0000    0.0000    0.0000   69.9662    0.0000
       6      0.0000    0.0000    0.0000    0.0000    0.0000   65.3394
-------------------------------------------------------------------------------


  Elastic Compliance Matrix: (Units=1/GPa)

-------------------------------------------------------------------------------
  Indices      1         2         3         4         5         6    
-------------------------------------------------------------------------------
       1    0.005827 -0.001319 -0.001572  0.000000  0.000000  0.000000
       2   -0.001319  0.005827 -0.001572  0.000000  0.000000  0.000000
       3   -0.001572 -0.001572  0.006080  0.000000  0.000000  0.000000
       4    0.000000  0.000000  0.000000  0.014293  0.000000  0.000000
       5    0.000000  0.000000  0.000000  0.000000  0.014293  0.000000
       6    0.000000  0.000000  0.000000  0.000000  0.000000  0.015305
-------------------------------------------------------------------------------

  Mechanical properties :

-------------------------------------------------------------------------------
  Convention :                    Reuss         Voigt         Hill
-------------------------------------------------------------------------------
  Bulk  Modulus (GPa)     =     113.52612     113.52612     113.52612
  Shear Modulus (GPa)     =      68.03918      68.11563      68.07740
-------------------------------------------------------------------------------
  Velocity S-wave (km/s)  =       3.98827       3.99051       3.98939
  Velocity P-wave (km/s)  =       6.91005       6.91177       6.91091
-------------------------------------------------------------------------------
  Compressibility (1/GPa) =    0.00880855
-------------------------------------------------------------------------------
  Stress axis :                     x             y             z
-------------------------------------------------------------------------------
  Youngs Moduli (GPa)     =     171.60691     171.60691     164.46817
-------------------------------------------------------------------------------
  Poissons Ratio (x)      =                     0.22636       0.25855
  Poissons Ratio (y)      =       0.22636                     0.25855
  Poissons Ratio (z)      =       0.26977       0.26977
-------------------------------------------------------------------------------


  Piezoelectric Strain Matrix: (Units=C/m**2)

-------------------------------------------------------------------------------
  Indices      1         2         3         4         5         6    
-------------------------------------------------------------------------------
       x     0.00000   0.00000   0.00000   0.00000   0.00000   0.00000
       y     0.00000   0.00000   0.00000   0.00000   0.00000   0.00000
       z     0.00000   0.00000   0.00000   0.00000   0.00000   0.00000
-------------------------------------------------------------------------------


  Piezoelectric Stress Matrix: (Units=10**-11 C/N)

-------------------------------------------------------------------------------
  Indices      1         2         3         4         5         6    
-------------------------------------------------------------------------------
       x     0.00000   0.00000   0.00000   0.00000   0.00000   0.00000
       y     0.00000   0.00000   0.00000   0.00000   0.00000   0.00000
       z     0.00000   0.00000   0.00000   0.00000   0.00000   0.00000
-------------------------------------------------------------------------------


  Static dielectric constant tensor : 

-------------------------------------------------------------------------------
              x         y         z
-------------------------------------------------------------------------------
       x     4.30957   0.00000   0.00000
       y     0.00000   4.30957   0.00000
       z     0.00000   0.00000   4.30952
--------------------------------------------------------------------------------

  High frequency dielectric constant tensor : 

-------------------------------------------------------------------------------
              x         y         z
-------------------------------------------------------------------------------
       x     1.68799   0.00000   0.00000
       y     0.00000   1.68799   0.00000
       z     0.00000   0.00000   1.68799
-------------------------------------------------------------------------------

  Static refractive indices : 

-------------------------------------------------------------------------------
    1 =    2.07594      2 =    2.07595      3 =    2.07595
-------------------------------------------------------------------------------

  High frequency refractive indices : 

-------------------------------------------------------------------------------
    1 =    1.29923      2 =    1.29923      3 =    1.29923
-------------------------------------------------------------------------------


  Time to end of optimisation =       0.0823 seconds


  Peak dynamic memory used =       0.59 MB 


  Timing analysis for GULP :

--------------------------------------------------------------------------------
  Task / Subroutine                                          Time (Seconds)
--------------------------------------------------------------------------------
  Calculation of reciprocal space energy and derivatives          0.0011
  Calculation of reciprocal space energy using symmetry           0.0028
  Calculation of real space energy and derivatives                0.0075
  Calculation of real space energy using symmetry                 0.0673
  Symmetry generation of equivalent positions                     0.0004
--------------------------------------------------------------------------------
  Total CPU time                                                  0.0823
--------------------------------------------------------------------------------


  CIF file written as perov.cif                                               


  Job Finished at 14:50.38 22nd February   2017                               

