********************************************************************************
*                       GENERAL UTILITY LATTICE PROGRAM                        *
*                                 Julian Gale                                  *
*                      Nanochemistry Research Institute                        *
*                           Department of Chemistry                            *
*                    Curtin University, Western Australia                      *
********************************************************************************
* Version = 4.3.2 * Last modified =  3rd March 2015                            *
********************************************************************************
*  optimise     - perform optimisation run                                     *
*  conp         - constant pressure calculation                                *
*  property     - calculate properties for final geometry                      *
********************************************************************************

  Job Started  at 14:50.34 22nd February   2017                               

  Number of CPUs =     1


  Total number of configurations input =   1

********************************************************************************
*  Input for Configuration =   1                                               *
********************************************************************************

  Formula = K2Mn2F6                                                     

  Number of irreducible atoms/shells =       6


  Total number atoms/shells =      16

  Dimensionality = 3               :  Bulk   


  Symmetry :

  Crystal family                   :  Tetragonal  
  Crystal class  (Groth - 1921)    :  Ditetragonal Dipyramidal             

  Space group (centrosymmetric)    :  I 4/M C M       

  Patterson group                  :  I 4/m m m

  Cartesian lattice vectors (Angstroms) :

       -2.100000    2.100000    2.100000
        2.100000   -2.100000    2.100000
        2.100000    2.100000   -2.100000

  Primitive cell parameters :            Full cell parameters :

  a =   3.6373    alpha = 109.4712       a =   4.2000    alpha =  90.0000
  b =   3.6373    beta  = 109.4712       b =   4.2000    beta  =  90.0000
  c =   3.6373    gamma = 109.4712       c =   4.2000    gamma =  90.0000

  Initial volumes (Angstroms**3):

  Primitive cell =          37.044000    Full cell =          74.088000

  Temperature of configuration =  0.000     K 

  Pressure of configuration =         0.000 GPa 

  Fractional coordinates of asymmetric unit :

--------------------------------------------------------------------------------
   No.  Atomic       x           y          z         Charge      Occupancy
        Label      (Frac)      (Frac)     (Frac)        (e)         (Frac)  
--------------------------------------------------------------------------------
      1 K     c    0.000000    0.500000    0.250000     0.80000    1.000000    
      2 Mn    c    0.000000    0.000000    0.000000     1.60000    1.000000    
      3 F     c    0.240600 *  0.740600    0.000000     0.37800    1.000000    
      4 F     c    0.000000    0.000000    0.250000     0.37800    1.000000    
      5 F     s    0.240600 *  0.740600    0.000000    -1.17800    1.000000    
      6 F     s    0.000000    0.000000    0.250000    -1.17800    1.000000    
--------------------------------------------------------------------------------


  Constraints : 

--------------------------------------------------------------------------------
  Constraint no.      Unconstrained     Constrained    Coefficient    Offset
                         Variable         Variable
--------------------------------------------------------------------------------
           1              Strain 1        Strain 2       1.00000      0.0000
           2                 3 x             3 y         1.00000      0.5000
           3                 5 x             5 y         1.00000      0.5000
--------------------------------------------------------------------------------


********************************************************************************
*  General input information                                                   *
********************************************************************************

  Species output for all configurations : 

--------------------------------------------------------------------------------
  Species    Type    Atomic    Atomic    Charge       Radii (Angs)     Library
                     Number     Mass       (e)     Cova   Ionic  VDW   Symbol
--------------------------------------------------------------------------------
    K        Core       19      39.10   0.800000   1.330  0.000  2.800          
    Mn       Core       25      54.94   1.600000   1.350  0.000  2.010          
    F        Core        9      19.00   0.378000   0.710  0.000  1.300          
    F        Shell       9       0.00  -1.178000   0.710  0.000  1.300          
--------------------------------------------------------------------------------


  Lattice summation method               =    Ewald          (3-D)
                                         =    Parry          (2-D)
                                         =    Saunders et al (1-D)
  Accuracy factor for lattice sums       =   12.000


  Time limit = Infinity

  Maximum range for interatomic potentials =    100000.000000 Angstroms

  General interatomic potentials :

--------------------------------------------------------------------------------
Atom  Types   Potential         A         B         C         D     Cutoffs(Ang)
  1     2                                                            Min    Max 
--------------------------------------------------------------------------------
K    c K    c Buckingham    0.219E+04 0.192      0.00      0.00     0.000 10.000
Mn   c F    s Buckingham    0.148E+04 0.266      0.00      0.00     0.000 10.000
F    s F    s Buckingham     912.     0.271      20.0      0.00     0.000 10.000
K    c F    s Buckingham    0.352E+04 0.267      0.00      0.00     0.000 10.000
F    c F    s Spring (c-s)   17.8      0.00      0.00      0.00     0.000  0.800
--------------------------------------------------------------------------------

********************************************************************************
*  Output for configuration   1                                                *
********************************************************************************


  Components of energy : 

--------------------------------------------------------------------------------
  Interatomic potentials     =         246.60489277 eV
  Monopole - monopole (real) =         -33.36127666 eV
  Monopole - monopole (recip)=         -55.39137038 eV
  Monopole - monopole (total)=         -88.75264704 eV
--------------------------------------------------------------------------------
  Total lattice energy : 
    Primitive unit cell      =         157.85224573 eV
    Non-primitive unit cell  =         315.70449147 eV
--------------------------------------------------------------------------------
  Total lattice energy (in kJmol-1): 
    Primitive unit cell      =           15230.3287 kJ/(mole unit cells)
    Non-primitive unit cell  =           30460.6574 kJ/(mole unit cells)
--------------------------------------------------------------------------------


  Number of variables =        4

  Maximum number of calculations  =          1000
  Maximum Hessian update interval =            10
  Maximum step size               =   1.000000000
  Maximum parameter tolerance     =   0.000010000
  Maximum function  tolerance     =   0.000010000
  Maximum gradient  tolerance     =   0.001000000
  Maximum gradient  component     =   0.010000000

  Symmetry constrained optimisation

  Symmetry used for second derivatives

  Cell parameters to be optimised using strains

  Newton-Raphson optimiser to be used

  BFGS hessian update to be used

  Start of bulk optimisation :

  Cycle:      0 Energy:       157.852246  Gnorm:    222.424788  CPU:    0.010
  ** Hessian calculated **
  Cycle:      1 Energy:       -45.552142  Gnorm:      7.497112  CPU:    0.031
  ** Hessian calculated **
  Cycle:      2 Energy:       -46.949544  Gnorm:      0.917651  CPU:    0.044
  Cycle:      3 Energy:       -46.978393  Gnorm:      0.265157  CPU:    0.054
  Cycle:      4 Energy:       -46.985303  Gnorm:      0.489408  CPU:    0.062
  Cycle:      5 Energy:       -46.987124  Gnorm:      0.403832  CPU:    0.070
  Cycle:      6 Energy:       -46.987346  Gnorm:      0.009754  CPU:    0.080
  Cycle:      7 Energy:       -46.987350  Gnorm:      0.001147  CPU:    0.087


  **** Optimisation achieved ****


  Final energy =     -46.98735008 eV
  Final Gnorm  =       0.00011089

  Components of energy : 

--------------------------------------------------------------------------------
  Interatomic potentials     =           5.83879688 eV
  Monopole - monopole (real) =         -18.80683343 eV
  Monopole - monopole (recip)=         -34.01931352 eV
  Monopole - monopole (total)=         -52.82614695 eV
--------------------------------------------------------------------------------
  Total lattice energy : 
    Primitive unit cell      =         -46.98735008 eV
    Non-primitive unit cell  =         -93.97470015 eV
--------------------------------------------------------------------------------
  Total lattice energy (in kJmol-1): 
    Primitive unit cell      =           -4533.5610 kJ/(mole unit cells)
    Non-primitive unit cell  =           -9067.1220 kJ/(mole unit cells)
--------------------------------------------------------------------------------

  Final asymmetric unit coordinates :

--------------------------------------------------------------------------------
   No.  Atomic        x           y           z         Radius
        Label       (Frac)      (Frac)      (Frac)       (Angs) 
--------------------------------------------------------------------------------
     1  K     c     0.000000    0.500000    0.250000    0.000000
     2  Mn    c     0.000000    0.000000    0.000000    0.000000
     3  F     c     0.249999    0.749999    0.000000    0.000000
     4  F     c     0.000000    0.000000    0.250000    0.000000
     5  F     s     0.249999    0.749999    0.000000    0.000000
     6  F     s     0.000000    0.000000    0.250000    0.000000
--------------------------------------------------------------------------------

  Final Cartesian lattice vectors (Angstroms) :

       -3.053745    3.053745    4.318657
        3.053745   -3.053745    4.318657
        3.053745    3.053745   -4.318657


  Final cell parameters and derivatives :

--------------------------------------------------------------------------------
       a            6.107496 Angstrom     dE/de1(xx)     0.000239 eV/strain
       b            6.107496 Angstrom     dE/de2(yy)     0.000000 eV/strain
       c            6.107496 Angstrom     dE/de3(zz)     0.000268 eV/strain
       alpha      120.000077 Degrees      dE/de4(yz)     0.000000 eV/strain
       beta       120.000077 Degrees      dE/de5(xz)     0.000000 eV/strain
       gamma       89.999867 Degrees      dE/de6(xy)     0.000000 eV/strain
--------------------------------------------------------------------------------

  Primitive cell volume =           161.092067 Angs**3

  Density of cell =      3.113894 g/cm**3

  Non-primitive lattice parameters :

  a    =     6.107489  b   =     6.107489  c    =     8.637314
  alpha=    90.000000  beta=    90.000000  gamma=    90.000000

  Non-primitive cell volume =           322.184135 Angs**3


  Final internal derivatives :

--------------------------------------------------------------------------------
   No.  Atomic          a             b             c           Radius
        Label          (eV)          (eV)          (eV)        (eV/Angs)
--------------------------------------------------------------------------------
      1 K     c       0.000000      0.000000      0.000000      0.000000
      2 Mn    c       0.000000      0.000000      0.000000      0.000000
      3 F     c       0.000131      0.000000      0.000000      0.000000
      4 F     c       0.000000      0.000000      0.000000      0.000000
      5 F     s      -0.000225      0.000000      0.000000      0.000000
      6 F     s       0.000000      0.000000      0.000000      0.000000
--------------------------------------------------------------------------------
  Maximum abs         0.000225      0.000000      0.000000      0.000000
--------------------------------------------------------------------------------


  Born effective charge tensors : 

-------------------------------------------------------------------------------
  Atom             x           y             z
-------------------------------------------------------------------------------
   1 K     x       0.8202      0.0000      0.0000
           y       0.0000      0.8202      0.0000
           z       0.0000      0.0000      0.8202
-------------------------------------------------------------------------------
   2 Mn    x       1.2651      0.0000      0.0000
           y       0.0000      1.2651      0.0000
           z       0.0000      0.0000      1.2652
-------------------------------------------------------------------------------
   3 F     x      -0.6925     -0.0080      0.0000
           y      -0.0080     -0.6925      0.0000
           z       0.0000      0.0000     -0.7004
-------------------------------------------------------------------------------
   4 F     x      -0.7004      0.0000      0.0000
           y       0.0000     -0.7004      0.0000
           z       0.0000      0.0000     -0.6845
-------------------------------------------------------------------------------




  Elastic Constant Matrix: (Units=GPa)

-------------------------------------------------------------------------------
  Indices      1         2         3         4         5         6    
-------------------------------------------------------------------------------
       1     71.8449   31.6024   20.1211    0.0000    0.0000    0.0000
       2     31.6024   71.8449   20.1211    0.0000    0.0000    0.0000
       3     20.1211   20.1211   83.3248    0.0000    0.0000    0.0000
       4      0.0000    0.0000    0.0000   20.1213    0.0000    0.0000
       5      0.0000    0.0000    0.0000    0.0000   20.1213    0.0000
       6      0.0000    0.0000    0.0000    0.0000    0.0000   31.6025
-------------------------------------------------------------------------------


  Elastic Compliance Matrix: (Units=1/GPa)

-------------------------------------------------------------------------------
  Indices      1         2         3         4         5         6    
-------------------------------------------------------------------------------
       1    0.017759 -0.007090 -0.002576  0.000000  0.000000  0.000000
       2   -0.007090  0.017759 -0.002576  0.000000  0.000000  0.000000
       3   -0.002576 -0.002576  0.013245  0.000000  0.000000  0.000000
       4    0.000000  0.000000  0.000000  0.049699  0.000000  0.000000
       5    0.000000  0.000000  0.000000  0.000000  0.049699  0.000000
       6    0.000000  0.000000  0.000000  0.000000  0.000000  0.031643
-------------------------------------------------------------------------------

  Mechanical properties :

-------------------------------------------------------------------------------
  Convention :                    Reuss         Voigt         Hill
-------------------------------------------------------------------------------
  Bulk  Modulus (GPa)     =      41.18933      41.18933      41.18933
  Shear Modulus (GPa)     =      23.54245      24.71370      24.12807
-------------------------------------------------------------------------------
  Velocity S-wave (km/s)  =       2.74963       2.81720       2.78362
  Velocity P-wave (km/s)  =       4.82786       4.87952       4.85376
-------------------------------------------------------------------------------
  Compressibility (1/GPa) =    0.02427813
-------------------------------------------------------------------------------
  Stress axis :                     x             y             z
-------------------------------------------------------------------------------
  Youngs Moduli (GPa)     =      56.30898      56.30898      75.49751
-------------------------------------------------------------------------------
  Poissons Ratio (x)      =                     0.39924       0.19451
  Poissons Ratio (y)      =       0.39924                     0.19451
  Poissons Ratio (z)      =       0.14507       0.14507
-------------------------------------------------------------------------------


  Piezoelectric Strain Matrix: (Units=C/m**2)

-------------------------------------------------------------------------------
  Indices      1         2         3         4         5         6    
-------------------------------------------------------------------------------
       x     0.00000   0.00000   0.00000   0.00000   0.00000   0.00000
       y     0.00000   0.00000   0.00000   0.00000   0.00000   0.00000
       z     0.00000   0.00000   0.00000   0.00000   0.00000   0.00000
-------------------------------------------------------------------------------


  Piezoelectric Stress Matrix: (Units=10**-11 C/N)

-------------------------------------------------------------------------------
  Indices      1         2         3         4         5         6    
-------------------------------------------------------------------------------
       x     0.00000   0.00000   0.00000   0.00000   0.00000   0.00000
       y     0.00000   0.00000   0.00000   0.00000   0.00000   0.00000
       z     0.00000   0.00000   0.00000   0.00000   0.00000   0.00000
-------------------------------------------------------------------------------


  Static dielectric constant tensor : 

-------------------------------------------------------------------------------
              x         y         z
-------------------------------------------------------------------------------
       x     4.55399   0.00000   0.00000
       y     0.00000   4.55399   0.00000
       z     0.00000   0.00000   4.55404
--------------------------------------------------------------------------------

  High frequency dielectric constant tensor : 

-------------------------------------------------------------------------------
              x         y         z
-------------------------------------------------------------------------------
       x     1.50772   0.00000   0.00000
       y     0.00000   1.50772   0.00000
       z     0.00000   0.00000   1.50772
-------------------------------------------------------------------------------

  Static refractive indices : 

-------------------------------------------------------------------------------
    1 =    2.13401      2 =    2.13401      3 =    2.13402
-------------------------------------------------------------------------------

  High frequency refractive indices : 

-------------------------------------------------------------------------------
    1 =    1.22789      2 =    1.22789      3 =    1.22789
-------------------------------------------------------------------------------


  Time to end of optimisation =       0.1040 seconds


  Peak dynamic memory used =       0.59 MB 


  Timing analysis for GULP :

--------------------------------------------------------------------------------
  Task / Subroutine                                          Time (Seconds)
--------------------------------------------------------------------------------
  Calculation of reciprocal space energy and derivatives          0.0013
  Calculation of reciprocal space energy using symmetry           0.0036
  Calculation of real space energy and derivatives                0.0072
  Calculation of real space energy using symmetry                 0.0877
  Symmetry generation of equivalent positions                     0.0004
--------------------------------------------------------------------------------
  Total CPU time                                                  0.1040
--------------------------------------------------------------------------------


  CIF file written as perov.cif                                               


  Job Finished at 14:50.34 22nd February   2017                               

