********************************************************************************
*                       GENERAL UTILITY LATTICE PROGRAM                        *
*                                 Julian Gale                                  *
*                      Nanochemistry Research Institute                        *
*                           Department of Chemistry                            *
*                    Curtin University, Western Australia                      *
********************************************************************************
* Version = 4.3.2 * Last modified =  3rd March 2015                            *
********************************************************************************
*  optimise     - perform optimisation run                                     *
*  conp         - constant pressure calculation                                *
*  property     - calculate properties for final geometry                      *
********************************************************************************

  Job Started  at 14:50.39 22nd February   2017                               

  Number of CPUs =     1


  Total number of configurations input =   1

********************************************************************************
*  Input for Configuration =   1                                               *
********************************************************************************

  Formula = K2Mn2F6                                                     

  Number of irreducible atoms/shells =       6


  Total number atoms/shells =      16

  Dimensionality = 3               :  Bulk   


  Symmetry :

  Crystal family                   :  Tetragonal  
  Crystal class  (Groth - 1921)    :  Ditetragonal Dipyramidal             

  Space group (centrosymmetric)    :  I 4/M C M       

  Patterson group                  :  I 4/m m m

  Cartesian lattice vectors (Angstroms) :

       -2.100000    2.100000    2.100000
        2.100000   -2.100000    2.100000
        2.100000    2.100000   -2.100000

  Primitive cell parameters :            Full cell parameters :

  a =   3.6373    alpha = 109.4712       a =   4.2000    alpha =  90.0000
  b =   3.6373    beta  = 109.4712       b =   4.2000    beta  =  90.0000
  c =   3.6373    gamma = 109.4712       c =   4.2000    gamma =  90.0000

  Initial volumes (Angstroms**3):

  Primitive cell =          37.044000    Full cell =          74.088000

  Temperature of configuration =  0.000     K 

  Pressure of configuration =         0.000 GPa 

  Fractional coordinates of asymmetric unit :

--------------------------------------------------------------------------------
   No.  Atomic       x           y          z         Charge      Occupancy
        Label      (Frac)      (Frac)     (Frac)        (e)         (Frac)  
--------------------------------------------------------------------------------
      1 K     c    0.000000    0.500000    0.250000     1.20000    1.000000    
      2 Mn    c    0.000000    0.000000    0.000000     1.80000    1.000000    
      3 F     c    0.240600 *  0.740600    0.000000     0.37800    1.000000    
      4 F     c    0.000000    0.000000    0.250000     0.37800    1.000000    
      5 F     s    0.240600 *  0.740600    0.000000    -1.37800    1.000000    
      6 F     s    0.000000    0.000000    0.250000    -1.37800    1.000000    
--------------------------------------------------------------------------------


  Constraints : 

--------------------------------------------------------------------------------
  Constraint no.      Unconstrained     Constrained    Coefficient    Offset
                         Variable         Variable
--------------------------------------------------------------------------------
           1              Strain 1        Strain 2       1.00000      0.0000
           2                 3 x             3 y         1.00000      0.5000
           3                 5 x             5 y         1.00000      0.5000
--------------------------------------------------------------------------------


********************************************************************************
*  General input information                                                   *
********************************************************************************

  Species output for all configurations : 

--------------------------------------------------------------------------------
  Species    Type    Atomic    Atomic    Charge       Radii (Angs)     Library
                     Number     Mass       (e)     Cova   Ionic  VDW   Symbol
--------------------------------------------------------------------------------
    K        Core       19      39.10   1.200000   1.330  0.000  2.800          
    Mn       Core       25      54.94   1.800000   1.350  0.000  2.010          
    F        Core        9      19.00   0.378000   0.710  0.000  1.300          
    F        Shell       9       0.00  -1.378000   0.710  0.000  1.300          
--------------------------------------------------------------------------------


  Lattice summation method               =    Ewald          (3-D)
                                         =    Parry          (2-D)
                                         =    Saunders et al (1-D)
  Accuracy factor for lattice sums       =   12.000


  Time limit = Infinity

  Maximum range for interatomic potentials =    100000.000000 Angstroms

  General interatomic potentials :

--------------------------------------------------------------------------------
Atom  Types   Potential         A         B         C         D     Cutoffs(Ang)
  1     2                                                            Min    Max 
--------------------------------------------------------------------------------
K    c K    c Buckingham    0.219E+04 0.192      0.00      0.00     0.000 10.000
Mn   c F    s Buckingham    0.148E+04 0.266      0.00      0.00     0.000 10.000
F    s F    s Buckingham     912.     0.271      20.0      0.00     0.000 10.000
K    c F    s Buckingham    0.352E+04 0.267      0.00      0.00     0.000 10.000
F    c F    s Spring (c-s)   24.3      0.00      0.00      0.00     0.000  0.800
--------------------------------------------------------------------------------

********************************************************************************
*  Output for configuration   1                                                *
********************************************************************************


  Components of energy : 

--------------------------------------------------------------------------------
  Interatomic potentials     =         246.60489277 eV
  Monopole - monopole (real) =         -48.42105377 eV
  Monopole - monopole (recip)=         -82.95269989 eV
  Monopole - monopole (total)=        -131.37375365 eV
--------------------------------------------------------------------------------
  Total lattice energy : 
    Primitive unit cell      =         115.23113912 eV
    Non-primitive unit cell  =         230.46227824 eV
--------------------------------------------------------------------------------
  Total lattice energy (in kJmol-1): 
    Primitive unit cell      =           11118.0435 kJ/(mole unit cells)
    Non-primitive unit cell  =           22236.0869 kJ/(mole unit cells)
--------------------------------------------------------------------------------


  Number of variables =        4

  Maximum number of calculations  =          1000
  Maximum Hessian update interval =            10
  Maximum step size               =   1.000000000
  Maximum parameter tolerance     =   0.000010000
  Maximum function  tolerance     =   0.000010000
  Maximum gradient  tolerance     =   0.001000000
  Maximum gradient  component     =   0.010000000

  Symmetry constrained optimisation

  Symmetry used for second derivatives

  Cell parameters to be optimised using strains

  Newton-Raphson optimiser to be used

  BFGS hessian update to be used

  Start of bulk optimisation :

  Cycle:      0 Energy:       115.231139  Gnorm:    214.605187  CPU:    0.010
  ** Hessian calculated **
  Cycle:      1 Energy:       -72.672012  Gnorm:      6.519653  CPU:    0.031
  ** Hessian calculated **
  Cycle:      2 Energy:       -73.352695  Gnorm:      2.329800  CPU:    0.043
  Cycle:      3 Energy:       -73.378235  Gnorm:      1.155326  CPU:    0.051
  Cycle:      4 Energy:       -73.385875  Gnorm:      1.185658  CPU:    0.058
  Cycle:      5 Energy:       -73.387750  Gnorm:      0.189014  CPU:    0.068
  Cycle:      6 Energy:       -73.387823  Gnorm:      0.020478  CPU:    0.076
  Cycle:      7 Energy:       -73.387828  Gnorm:      0.010652  CPU:    0.083
  Cycle:      8 Energy:       -73.387828  Gnorm:      0.001208  CPU:    0.091


  **** Optimisation achieved ****


  Final energy =     -73.38782796 eV
  Final Gnorm  =       0.00010878

  Components of energy : 

--------------------------------------------------------------------------------
  Interatomic potentials     =           9.66512592 eV
  Monopole - monopole (real) =         -14.29994295 eV
  Monopole - monopole (recip)=         -68.75301092 eV
  Monopole - monopole (total)=         -83.05295388 eV
--------------------------------------------------------------------------------
  Total lattice energy : 
    Primitive unit cell      =         -73.38782796 eV
    Non-primitive unit cell  =        -146.77565591 eV
--------------------------------------------------------------------------------
  Total lattice energy (in kJmol-1): 
    Primitive unit cell      =           -7080.8036 kJ/(mole unit cells)
    Non-primitive unit cell  =          -14161.6071 kJ/(mole unit cells)
--------------------------------------------------------------------------------

  Final asymmetric unit coordinates :

--------------------------------------------------------------------------------
   No.  Atomic        x           y           z         Radius
        Label       (Frac)      (Frac)      (Frac)       (Angs) 
--------------------------------------------------------------------------------
     1  K     c     0.000000    0.500000    0.250000    0.000000
     2  Mn    c     0.000000    0.000000    0.000000    0.000000
     3  F     c     0.225778    0.725778    0.000000    0.000000
     4  F     c     0.000000    0.000000    0.250000    0.000000
     5  F     s     0.226072    0.726072    0.000000    0.000000
     6  F     s     0.000000    0.000000    0.250000    0.000000
--------------------------------------------------------------------------------

  Final Cartesian lattice vectors (Angstroms) :

       -2.877020    2.877020    4.088313
        2.877020   -2.877020    4.088313
        2.877020    2.877020   -4.088313


  Final cell parameters and derivatives :

--------------------------------------------------------------------------------
       a            5.767910 Angstrom     dE/de1(xx)     0.000087 eV/strain
       b            5.767910 Angstrom     dE/de2(yy)     0.000000 eV/strain
       c            5.767910 Angstrom     dE/de3(zz)     0.000044 eV/strain
       alpha      120.159044 Degrees      dE/de4(yz)     0.000000 eV/strain
       beta       120.159044 Degrees      dE/de5(xz)     0.000000 eV/strain
       gamma       89.724748 Degrees      dE/de6(xy)     0.000000 eV/strain
--------------------------------------------------------------------------------

  Primitive cell volume =           135.359829 Angs**3

  Density of cell =      3.705853 g/cm**3

  Non-primitive lattice parameters :

  a    =     5.754039  b   =     5.754039  c    =     8.176627
  alpha=    90.000000  beta=    90.000000  gamma=    90.000000

  Non-primitive cell volume =           270.719657 Angs**3


  Final internal derivatives :

--------------------------------------------------------------------------------
   No.  Atomic          a             b             c           Radius
        Label          (eV)          (eV)          (eV)        (eV/Angs)
--------------------------------------------------------------------------------
      1 K     c       0.000000      0.000000      0.000000      0.000000
      2 Mn    c       0.000000      0.000000      0.000000      0.000000
      3 F     c       0.000365      0.000000      0.000000      0.000000
      4 F     c       0.000000      0.000000      0.000000      0.000000
      5 F     s      -0.000215      0.000000      0.000000      0.000000
      6 F     s       0.000000      0.000000      0.000000      0.000000
--------------------------------------------------------------------------------
  Maximum abs         0.000365      0.000000      0.000000      0.000000
--------------------------------------------------------------------------------


  Born effective charge tensors : 

-------------------------------------------------------------------------------
  Atom             x           y             z
-------------------------------------------------------------------------------
   1 K     x       1.2480      0.0000      0.0000
           y       0.0000      1.2480      0.0000
           z       0.0000      0.0000      1.2358
-------------------------------------------------------------------------------
   2 Mn    x       1.3787     -0.0004      0.0000
           y       0.0004      1.3787      0.0000
           z       0.0000      0.0000      1.3766
-------------------------------------------------------------------------------
   3 F     x      -0.8662     -0.0226      0.0000
           y      -0.0226     -0.8662      0.0000
           z       0.0000      0.0000     -0.8852
-------------------------------------------------------------------------------
   4 F     x      -0.8944      0.0000      0.0000
           y       0.0000     -0.8944      0.0000
           z       0.0000      0.0000     -0.8420
-------------------------------------------------------------------------------




  Elastic Constant Matrix: (Units=GPa)

-------------------------------------------------------------------------------
  Indices      1         2         3         4         5         6    
-------------------------------------------------------------------------------
       1    122.5361   48.0952   43.9155    0.0000    0.0000    0.0000
       2     48.0952  122.5361   43.9155    0.0000    0.0000    0.0000
       3     43.9155   43.9155  136.3440    0.0000    0.0000    0.0000
       4      0.0000    0.0000    0.0000   23.2671    0.0000    0.0000
       5      0.0000    0.0000    0.0000    0.0000   23.2671    0.0000
       6      0.0000    0.0000    0.0000    0.0000    0.0000   47.7437
-------------------------------------------------------------------------------


  Elastic Compliance Matrix: (Units=1/GPa)

-------------------------------------------------------------------------------
  Indices      1         2         3         4         5         6    
-------------------------------------------------------------------------------
       1    0.010229 -0.003204 -0.002263  0.000000  0.000000  0.000000
       2   -0.003204  0.010229 -0.002263  0.000000  0.000000  0.000000
       3   -0.002263 -0.002263  0.008792  0.000000  0.000000  0.000000
       4    0.000000  0.000000  0.000000  0.042979  0.000000  0.000000
       5    0.000000  0.000000  0.000000  0.000000  0.042979  0.000000
       6    0.000000  0.000000  0.000000  0.000000  0.000000  0.020945
-------------------------------------------------------------------------------

  Mechanical properties :

-------------------------------------------------------------------------------
  Convention :                    Reuss         Voigt         Hill
-------------------------------------------------------------------------------
  Bulk  Modulus (GPa)     =      72.50843      72.58540      72.54692
  Shear Modulus (GPa)     =      32.00799      35.22157      33.61478
-------------------------------------------------------------------------------
  Velocity S-wave (km/s)  =       2.93890       3.08291       3.01176
  Velocity P-wave (km/s)  =       5.57513       5.67971       5.62766
-------------------------------------------------------------------------------
  Compressibility (1/GPa) =    0.01379150
-------------------------------------------------------------------------------
  Stress axis :                     x             y             z
-------------------------------------------------------------------------------
  Youngs Moduli (GPa)     =      97.75729      97.75729     113.73886
-------------------------------------------------------------------------------
  Poissons Ratio (x)      =                     0.31322       0.25737
  Poissons Ratio (y)      =       0.31322                     0.25737
  Poissons Ratio (z)      =       0.22121       0.22121
-------------------------------------------------------------------------------


  Piezoelectric Strain Matrix: (Units=C/m**2)

-------------------------------------------------------------------------------
  Indices      1         2         3         4         5         6    
-------------------------------------------------------------------------------
       x     0.00000   0.00000   0.00000   0.00000   0.00000   0.00000
       y     0.00000   0.00000   0.00000   0.00000   0.00000   0.00000
       z     0.00000   0.00000   0.00000   0.00000   0.00000   0.00000
-------------------------------------------------------------------------------


  Piezoelectric Stress Matrix: (Units=10**-11 C/N)

-------------------------------------------------------------------------------
  Indices      1         2         3         4         5         6    
-------------------------------------------------------------------------------
       x     0.00000   0.00000   0.00000   0.00000   0.00000   0.00000
       y     0.00000   0.00000   0.00000   0.00000   0.00000   0.00000
       z     0.00000   0.00000   0.00000   0.00000   0.00000   0.00000
-------------------------------------------------------------------------------


  Static dielectric constant tensor : 

-------------------------------------------------------------------------------
              x         y         z
-------------------------------------------------------------------------------
       x     6.23475   0.00000   0.00000
       y     0.00000   6.23475   0.00000
       z     0.00000   0.00000   5.40772
--------------------------------------------------------------------------------

  High frequency dielectric constant tensor : 

-------------------------------------------------------------------------------
              x         y         z
-------------------------------------------------------------------------------
       x     1.60406   0.00000   0.00000
       y     0.00000   1.60406   0.00000
       z     0.00000   0.00000   1.60112
-------------------------------------------------------------------------------

  Static refractive indices : 

-------------------------------------------------------------------------------
    1 =    2.32545      2 =    2.49695      3 =    2.49695
-------------------------------------------------------------------------------

  High frequency refractive indices : 

-------------------------------------------------------------------------------
    1 =    1.26535      2 =    1.26651      3 =    1.26651
-------------------------------------------------------------------------------


  Time to end of optimisation =       0.1100 seconds


  Peak dynamic memory used =       0.59 MB 


  Timing analysis for GULP :

--------------------------------------------------------------------------------
  Task / Subroutine                                          Time (Seconds)
--------------------------------------------------------------------------------
  Calculation of reciprocal space energy and derivatives          0.0016
  Calculation of reciprocal space energy using symmetry           0.0038
  Calculation of real space energy and derivatives                0.0094
  Calculation of real space energy using symmetry                 0.0910
  Symmetry generation of equivalent positions                     0.0004
--------------------------------------------------------------------------------
  Total CPU time                                                  0.1100
--------------------------------------------------------------------------------


  CIF file written as perov.cif                                               


  Job Finished at 14:50.39 22nd February   2017                               

