********************************************************************************
*                       GENERAL UTILITY LATTICE PROGRAM                        *
*                                 Julian Gale                                  *
*                      Nanochemistry Research Institute                        *
*                           Department of Chemistry                            *
*                    Curtin University, Western Australia                      *
********************************************************************************
* Version = 4.3.2 * Last modified =  3rd March 2015                            *
********************************************************************************
*  optimise     - perform optimisation run                                     *
*  conp         - constant pressure calculation                                *
*  property     - calculate properties for final geometry                      *
********************************************************************************

  Job Started  at 14:50.34 22nd February   2017                               

  Number of CPUs =     1


  Total number of configurations input =   1

********************************************************************************
*  Input for Configuration =   1                                               *
********************************************************************************

  Formula = K2Mn2F6                                                     

  Number of irreducible atoms/shells =       6


  Total number atoms/shells =      16

  Dimensionality = 3               :  Bulk   


  Symmetry :

  Crystal family                   :  Tetragonal  
  Crystal class  (Groth - 1921)    :  Ditetragonal Dipyramidal             

  Space group (centrosymmetric)    :  I 4/M C M       

  Patterson group                  :  I 4/m m m

  Cartesian lattice vectors (Angstroms) :

       -2.100000    2.100000    2.100000
        2.100000   -2.100000    2.100000
        2.100000    2.100000   -2.100000

  Primitive cell parameters :            Full cell parameters :

  a =   3.6373    alpha = 109.4712       a =   4.2000    alpha =  90.0000
  b =   3.6373    beta  = 109.4712       b =   4.2000    beta  =  90.0000
  c =   3.6373    gamma = 109.4712       c =   4.2000    gamma =  90.0000

  Initial volumes (Angstroms**3):

  Primitive cell =          37.044000    Full cell =          74.088000

  Temperature of configuration =  0.000     K 

  Pressure of configuration =         0.000 GPa 

  Fractional coordinates of asymmetric unit :

--------------------------------------------------------------------------------
   No.  Atomic       x           y          z         Charge      Occupancy
        Label      (Frac)      (Frac)     (Frac)        (e)         (Frac)  
--------------------------------------------------------------------------------
      1 K     c    0.000000    0.500000    0.250000     0.80000    1.000000    
      2 Mn    c    0.000000    0.000000    0.000000     2.00000    1.000000    
      3 F     c    0.240600 *  0.740600    0.000000     0.37800    1.000000    
      4 F     c    0.000000    0.000000    0.250000     0.37800    1.000000    
      5 F     s    0.240600 *  0.740600    0.000000    -1.31133    1.000000    
      6 F     s    0.000000    0.000000    0.250000    -1.31133    1.000000    
--------------------------------------------------------------------------------


  Constraints : 

--------------------------------------------------------------------------------
  Constraint no.      Unconstrained     Constrained    Coefficient    Offset
                         Variable         Variable
--------------------------------------------------------------------------------
           1              Strain 1        Strain 2       1.00000      0.0000
           2                 3 x             3 y         1.00000      0.5000
           3                 5 x             5 y         1.00000      0.5000
--------------------------------------------------------------------------------


********************************************************************************
*  General input information                                                   *
********************************************************************************

  Species output for all configurations : 

--------------------------------------------------------------------------------
  Species    Type    Atomic    Atomic    Charge       Radii (Angs)     Library
                     Number     Mass       (e)     Cova   Ionic  VDW   Symbol
--------------------------------------------------------------------------------
    K        Core       19      39.10   0.800000   1.330  0.000  2.800          
    Mn       Core       25      54.94   2.000000   1.350  0.000  2.010          
    F        Core        9      19.00   0.378000   0.710  0.000  1.300          
    F        Shell       9       0.00  -1.311333   0.710  0.000  1.300          
--------------------------------------------------------------------------------


  Lattice summation method               =    Ewald          (3-D)
                                         =    Parry          (2-D)
                                         =    Saunders et al (1-D)
  Accuracy factor for lattice sums       =   12.000


  Time limit = Infinity

  Maximum range for interatomic potentials =    100000.000000 Angstroms

  General interatomic potentials :

--------------------------------------------------------------------------------
Atom  Types   Potential         A         B         C         D     Cutoffs(Ang)
  1     2                                                            Min    Max 
--------------------------------------------------------------------------------
K    c K    c Buckingham    0.219E+04 0.192      0.00      0.00     0.000 10.000
Mn   c F    s Buckingham    0.148E+04 0.266      0.00      0.00     0.000 10.000
F    s F    s Buckingham     912.     0.271      20.0      0.00     0.000 10.000
K    c F    s Buckingham    0.352E+04 0.267      0.00      0.00     0.000 10.000
F    c F    s Spring (c-s)   22.0      0.00      0.00      0.00     0.000  0.800
--------------------------------------------------------------------------------

********************************************************************************
*  Output for configuration   1                                                *
********************************************************************************


  Components of energy : 

--------------------------------------------------------------------------------
  Interatomic potentials     =         246.60489277 eV
  Monopole - monopole (real) =         -47.76022379 eV
  Monopole - monopole (recip)=         -78.43466976 eV
  Monopole - monopole (total)=        -126.19489354 eV
--------------------------------------------------------------------------------
  Total lattice energy : 
    Primitive unit cell      =         120.40999923 eV
    Non-primitive unit cell  =         240.81999845 eV
--------------------------------------------------------------------------------
  Total lattice energy (in kJmol-1): 
    Primitive unit cell      =           11617.7243 kJ/(mole unit cells)
    Non-primitive unit cell  =           23235.4486 kJ/(mole unit cells)
--------------------------------------------------------------------------------


  Number of variables =        4

  Maximum number of calculations  =          1000
  Maximum Hessian update interval =            10
  Maximum step size               =   1.000000000
  Maximum parameter tolerance     =   0.000010000
  Maximum function  tolerance     =   0.000010000
  Maximum gradient  tolerance     =   0.001000000
  Maximum gradient  component     =   0.010000000

  Symmetry constrained optimisation

  Symmetry used for second derivatives

  Cell parameters to be optimised using strains

  Newton-Raphson optimiser to be used

  BFGS hessian update to be used

  Start of bulk optimisation :

  Cycle:      0 Energy:       120.409999  Gnorm:    215.964885  CPU:    0.010
  ** Hessian calculated **
  Cycle:      1 Energy:       -69.003469  Gnorm:      5.978520  CPU:    0.032
  ** Hessian calculated **
  Cycle:      2 Energy:       -69.789364  Gnorm:      1.070474  CPU:    0.044
  Cycle:      3 Energy:       -69.809611  Gnorm:      0.606421  CPU:    0.053
  Cycle:      4 Energy:       -69.812787  Gnorm:      0.459989  CPU:    0.061
  Cycle:      5 Energy:       -69.813298  Gnorm:      0.091212  CPU:    0.069
  Cycle:      6 Energy:       -69.813309  Gnorm:      0.002087  CPU:    0.076


  **** Optimisation achieved ****


  Final energy =     -69.81330943 eV
  Final Gnorm  =       0.00062119

  Components of energy : 

--------------------------------------------------------------------------------
  Interatomic potentials     =           9.17106931 eV
  Monopole - monopole (real) =         -14.35728759 eV
  Monopole - monopole (recip)=         -64.62709116 eV
  Monopole - monopole (total)=         -78.98437874 eV
--------------------------------------------------------------------------------
  Total lattice energy : 
    Primitive unit cell      =         -69.81330943 eV
    Non-primitive unit cell  =        -139.62661887 eV
--------------------------------------------------------------------------------
  Total lattice energy (in kJmol-1): 
    Primitive unit cell      =           -6735.9172 kJ/(mole unit cells)
    Non-primitive unit cell  =          -13471.8343 kJ/(mole unit cells)
--------------------------------------------------------------------------------

  Final asymmetric unit coordinates :

--------------------------------------------------------------------------------
   No.  Atomic        x           y           z         Radius
        Label       (Frac)      (Frac)      (Frac)       (Angs) 
--------------------------------------------------------------------------------
     1  K     c     0.000000    0.500000    0.250000    0.000000
     2  Mn    c     0.000000    0.000000    0.000000    0.000000
     3  F     c     0.250002    0.750002    0.000000    0.000000
     4  F     c     0.000000    0.000000    0.250000    0.000000
     5  F     s     0.250001    0.750001    0.000000    0.000000
     6  F     s     0.000000    0.000000    0.250000    0.000000
--------------------------------------------------------------------------------

  Final Cartesian lattice vectors (Angstroms) :

       -2.901401    2.901401    4.103216
        2.901401   -2.901401    4.103216
        2.901401    2.901401   -4.103216


  Final cell parameters and derivatives :

--------------------------------------------------------------------------------
       a            5.802812 Angstrom     dE/de1(xx)    -0.000239 eV/strain
       b            5.802812 Angstrom     dE/de2(yy)     0.000000 eV/strain
       c            5.802812 Angstrom     dE/de3(zz)     0.000183 eV/strain
       alpha      120.000128 Degrees      dE/de4(yz)     0.000000 eV/strain
       beta       120.000128 Degrees      dE/de5(xz)     0.000000 eV/strain
       gamma       89.999778 Degrees      dE/de6(xy)     0.000000 eV/strain
--------------------------------------------------------------------------------

  Primitive cell volume =           138.165548 Angs**3

  Density of cell =      3.630598 g/cm**3

  Non-primitive lattice parameters :

  a    =     5.802801  b   =     5.802801  c    =     8.206432
  alpha=    90.000000  beta=    90.000000  gamma=    90.000000

  Non-primitive cell volume =           276.331096 Angs**3


  Final internal derivatives :

--------------------------------------------------------------------------------
   No.  Atomic          a             b             c           Radius
        Label          (eV)          (eV)          (eV)        (eV/Angs)
--------------------------------------------------------------------------------
      1 K     c       0.000000      0.000000      0.000000      0.000000
      2 Mn    c       0.000000      0.000000      0.000000      0.000000
      3 F     c       0.001891      0.000000      0.000000      0.000000
      4 F     c       0.000000      0.000000      0.000000      0.000000
      5 F     s      -0.001583      0.000000      0.000000      0.000000
      6 F     s       0.000000      0.000000      0.000000      0.000000
--------------------------------------------------------------------------------
  Maximum abs         0.001891      0.000000      0.000000      0.000000
--------------------------------------------------------------------------------


  Born effective charge tensors : 

-------------------------------------------------------------------------------
  Atom             x           y             z
-------------------------------------------------------------------------------
   1 K     x       0.7765      0.0000      0.0000
           y       0.0000      0.7765      0.0000
           z       0.0000      0.0000      0.7765
-------------------------------------------------------------------------------
   2 Mn    x       1.6117      0.0000      0.0000
           y       0.0000      1.6117      0.0000
           z       0.0000      0.0000      1.6117
-------------------------------------------------------------------------------
   3 F     x      -0.8100      0.0417      0.0000
           y       0.0417     -0.8100      0.0000
           z       0.0000      0.0000     -0.7683
-------------------------------------------------------------------------------
   4 F     x      -0.7683      0.0000      0.0000
           y       0.0000     -0.7683      0.0000
           z       0.0000      0.0000     -0.8517
-------------------------------------------------------------------------------




  Elastic Constant Matrix: (Units=GPa)

-------------------------------------------------------------------------------
  Indices      1         2         3         4         5         6    
-------------------------------------------------------------------------------
       1    120.7300   45.2995   37.7153    0.0000    0.0000    0.0000
       2     45.2995  120.7300   37.7153    0.0000    0.0000    0.0000
       3     37.7153   37.7153  128.3108    0.0000    0.0000    0.0000
       4      0.0000    0.0000    0.0000   37.7153    0.0000    0.0000
       5      0.0000    0.0000    0.0000    0.0000   37.7153    0.0000
       6      0.0000    0.0000    0.0000    0.0000    0.0000   45.2993
-------------------------------------------------------------------------------


  Elastic Compliance Matrix: (Units=1/GPa)

-------------------------------------------------------------------------------
  Indices      1         2         3         4         5         6    
-------------------------------------------------------------------------------
       1    0.010104 -0.003153 -0.002043  0.000000  0.000000  0.000000
       2   -0.003153  0.010104 -0.002043  0.000000  0.000000  0.000000
       3   -0.002043 -0.002043  0.008995  0.000000  0.000000  0.000000
       4    0.000000  0.000000  0.000000  0.026514  0.000000  0.000000
       5    0.000000  0.000000  0.000000  0.000000  0.026514  0.000000
       6    0.000000  0.000000  0.000000  0.000000  0.000000  0.022075
-------------------------------------------------------------------------------

  Mechanical properties :

-------------------------------------------------------------------------------
  Convention :                    Reuss         Voigt         Hill
-------------------------------------------------------------------------------
  Bulk  Modulus (GPa)     =      67.91452      67.91452      67.91452
  Shear Modulus (GPa)     =      40.42213      40.74870      40.58542
-------------------------------------------------------------------------------
  Velocity S-wave (km/s)  =       3.33673       3.35018       3.34346
  Velocity P-wave (km/s)  =       5.79233       5.80268       5.79751
-------------------------------------------------------------------------------
  Compressibility (1/GPa) =    0.01472439
-------------------------------------------------------------------------------
  Stress axis :                     x             y             z
-------------------------------------------------------------------------------
  Youngs Moduli (GPa)     =      98.96800      98.96800     111.17600
-------------------------------------------------------------------------------
  Poissons Ratio (x)      =                     0.31204       0.22716
  Poissons Ratio (y)      =       0.31204                     0.22716
  Poissons Ratio (z)      =       0.20222       0.20222
-------------------------------------------------------------------------------


  Piezoelectric Strain Matrix: (Units=C/m**2)

-------------------------------------------------------------------------------
  Indices      1         2         3         4         5         6    
-------------------------------------------------------------------------------
       x     0.00000   0.00000   0.00000   0.00000   0.00000   0.00000
       y     0.00000   0.00000   0.00000   0.00000   0.00000   0.00000
       z     0.00000   0.00000   0.00000   0.00000   0.00000   0.00000
-------------------------------------------------------------------------------


  Piezoelectric Stress Matrix: (Units=10**-11 C/N)

-------------------------------------------------------------------------------
  Indices      1         2         3         4         5         6    
-------------------------------------------------------------------------------
       x     0.00000   0.00000   0.00000   0.00000   0.00000   0.00000
       y     0.00000   0.00000   0.00000   0.00000   0.00000   0.00000
       z     0.00000   0.00000   0.00000   0.00000   0.00000   0.00000
-------------------------------------------------------------------------------


  Static dielectric constant tensor : 

-------------------------------------------------------------------------------
              x         y         z
-------------------------------------------------------------------------------
       x     3.69955   0.00000   0.00000
       y     0.00000   3.69955   0.00000
       z     0.00000   0.00000   3.69963
--------------------------------------------------------------------------------

  High frequency dielectric constant tensor : 

-------------------------------------------------------------------------------
              x         y         z
-------------------------------------------------------------------------------
       x     1.58414   0.00000   0.00000
       y     0.00000   1.58414   0.00000
       z     0.00000   0.00000   1.58414
-------------------------------------------------------------------------------

  Static refractive indices : 

-------------------------------------------------------------------------------
    1 =    1.92342      2 =    1.92342      3 =    1.92344
-------------------------------------------------------------------------------

  High frequency refractive indices : 

-------------------------------------------------------------------------------
    1 =    1.25863      2 =    1.25863      3 =    1.25863
-------------------------------------------------------------------------------


  Time to end of optimisation =       0.0919 seconds


  Peak dynamic memory used =       0.59 MB 


  Timing analysis for GULP :

--------------------------------------------------------------------------------
  Task / Subroutine                                          Time (Seconds)
--------------------------------------------------------------------------------
  Calculation of reciprocal space energy and derivatives          0.0012
  Calculation of reciprocal space energy using symmetry           0.0032
  Calculation of real space energy and derivatives                0.0065
  Calculation of real space energy using symmetry                 0.0770
  Symmetry generation of equivalent positions                     0.0004
--------------------------------------------------------------------------------
  Total CPU time                                                  0.0919
--------------------------------------------------------------------------------


  CIF file written as perov.cif                                               


  Job Finished at 14:50.34 22nd February   2017                               

