********************************************************************************
*                       GENERAL UTILITY LATTICE PROGRAM                        *
*                                 Julian Gale                                  *
*                      Nanochemistry Research Institute                        *
*                           Department of Chemistry                            *
*                    Curtin University, Western Australia                      *
********************************************************************************
* Version = 4.3.2 * Last modified =  3rd March 2015                            *
********************************************************************************
*  optimise     - perform optimisation run                                     *
*  conp         - constant pressure calculation                                *
*  property     - calculate properties for final geometry                      *
********************************************************************************

  Job Started  at 14:50.39 22nd February   2017                               

  Number of CPUs =     1


  Total number of configurations input =   1

********************************************************************************
*  Input for Configuration =   1                                               *
********************************************************************************

  Formula = K2Mn2F6                                                     

  Number of irreducible atoms/shells =       6


  Total number atoms/shells =      16

  Dimensionality = 3               :  Bulk   


  Symmetry :

  Crystal family                   :  Tetragonal  
  Crystal class  (Groth - 1921)    :  Ditetragonal Dipyramidal             

  Space group (centrosymmetric)    :  I 4/M C M       

  Patterson group                  :  I 4/m m m

  Cartesian lattice vectors (Angstroms) :

       -2.100000    2.100000    2.100000
        2.100000   -2.100000    2.100000
        2.100000    2.100000   -2.100000

  Primitive cell parameters :            Full cell parameters :

  a =   3.6373    alpha = 109.4712       a =   4.2000    alpha =  90.0000
  b =   3.6373    beta  = 109.4712       b =   4.2000    beta  =  90.0000
  c =   3.6373    gamma = 109.4712       c =   4.2000    gamma =  90.0000

  Initial volumes (Angstroms**3):

  Primitive cell =          37.044000    Full cell =          74.088000

  Temperature of configuration =  0.000     K 

  Pressure of configuration =         0.000 GPa 

  Fractional coordinates of asymmetric unit :

--------------------------------------------------------------------------------
   No.  Atomic       x           y          z         Charge      Occupancy
        Label      (Frac)      (Frac)     (Frac)        (e)         (Frac)  
--------------------------------------------------------------------------------
      1 K     c    0.000000    0.500000    0.250000     1.20000    1.000000    
      2 Mn    c    0.000000    0.000000    0.000000     2.20000    1.000000    
      3 F     c    0.240600 *  0.740600    0.000000     0.37800    1.000000    
      4 F     c    0.000000    0.000000    0.250000     0.37800    1.000000    
      5 F     s    0.240600 *  0.740600    0.000000    -1.51133    1.000000    
      6 F     s    0.000000    0.000000    0.250000    -1.51133    1.000000    
--------------------------------------------------------------------------------


  Constraints : 

--------------------------------------------------------------------------------
  Constraint no.      Unconstrained     Constrained    Coefficient    Offset
                         Variable         Variable
--------------------------------------------------------------------------------
           1              Strain 1        Strain 2       1.00000      0.0000
           2                 3 x             3 y         1.00000      0.5000
           3                 5 x             5 y         1.00000      0.5000
--------------------------------------------------------------------------------


********************************************************************************
*  General input information                                                   *
********************************************************************************

  Species output for all configurations : 

--------------------------------------------------------------------------------
  Species    Type    Atomic    Atomic    Charge       Radii (Angs)     Library
                     Number     Mass       (e)     Cova   Ionic  VDW   Symbol
--------------------------------------------------------------------------------
    K        Core       19      39.10   1.200000   1.330  0.000  2.800          
    Mn       Core       25      54.94   2.200000   1.350  0.000  2.010          
    F        Core        9      19.00   0.378000   0.710  0.000  1.300          
    F        Shell       9       0.00  -1.511333   0.710  0.000  1.300          
--------------------------------------------------------------------------------


  Lattice summation method               =    Ewald          (3-D)
                                         =    Parry          (2-D)
                                         =    Saunders et al (1-D)
  Accuracy factor for lattice sums       =   12.000


  Time limit = Infinity

  Maximum range for interatomic potentials =    100000.000000 Angstroms

  General interatomic potentials :

--------------------------------------------------------------------------------
Atom  Types   Potential         A         B         C         D     Cutoffs(Ang)
  1     2                                                            Min    Max 
--------------------------------------------------------------------------------
K    c K    c Buckingham    0.219E+04 0.192      0.00      0.00     0.000 10.000
Mn   c F    s Buckingham    0.148E+04 0.266      0.00      0.00     0.000 10.000
F    s F    s Buckingham     912.     0.271      20.0      0.00     0.000 10.000
K    c F    s Buckingham    0.352E+04 0.267      0.00      0.00     0.000 10.000
F    c F    s Spring (c-s)   29.3      0.00      0.00      0.00     0.000  0.800
--------------------------------------------------------------------------------

********************************************************************************
*  Output for configuration   1                                                *
********************************************************************************


  Components of energy : 

--------------------------------------------------------------------------------
  Interatomic potentials     =         246.60489277 eV
  Monopole - monopole (real) =         -65.54273154 eV
  Monopole - monopole (recip)=        -109.60800662 eV
  Monopole - monopole (total)=        -175.15073816 eV
--------------------------------------------------------------------------------
  Total lattice energy : 
    Primitive unit cell      =          71.45415461 eV
    Non-primitive unit cell  =         142.90830921 eV
--------------------------------------------------------------------------------
  Total lattice energy (in kJmol-1): 
    Primitive unit cell      =            6894.2336 kJ/(mole unit cells)
    Non-primitive unit cell  =           13788.4673 kJ/(mole unit cells)
--------------------------------------------------------------------------------


  Number of variables =        4

  Maximum number of calculations  =          1000
  Maximum Hessian update interval =            10
  Maximum step size               =   1.000000000
  Maximum parameter tolerance     =   0.000010000
  Maximum function  tolerance     =   0.000010000
  Maximum gradient  tolerance     =   0.001000000
  Maximum gradient  component     =   0.010000000

  Symmetry constrained optimisation

  Symmetry used for second derivatives

  Cell parameters to be optimised using strains

  Newton-Raphson optimiser to be used

  BFGS hessian update to be used

  Start of bulk optimisation :

  Cycle:      0 Energy:        71.454155  Gnorm:    207.021635  CPU:    0.010
  ** Hessian calculated **
  Cycle:      1 Energy:      -101.082045  Gnorm:      4.840623  CPU:    0.031
  ** Hessian calculated **
  Cycle:      2 Energy:      -101.451364  Gnorm:      1.148675  CPU:    0.043
  Cycle:      3 Energy:      -101.460325  Gnorm:      0.667311  CPU:    0.051
  Cycle:      4 Energy:      -101.460942  Gnorm:      0.133207  CPU:    0.058
  Cycle:      5 Energy:      -101.460996  Gnorm:      0.014416  CPU:    0.066


  **** Optimisation achieved ****


  Final energy =    -101.46099620 eV
  Final Gnorm  =       0.00034560

  Components of energy : 

--------------------------------------------------------------------------------
  Interatomic potentials     =          14.05169180 eV
  Monopole - monopole (real) =         -24.09267182 eV
  Monopole - monopole (recip)=         -91.42001618 eV
  Monopole - monopole (total)=        -115.51268800 eV
--------------------------------------------------------------------------------
  Total lattice energy : 
    Primitive unit cell      =        -101.46099620 eV
    Non-primitive unit cell  =        -202.92199240 eV
--------------------------------------------------------------------------------
  Total lattice energy (in kJmol-1): 
    Primitive unit cell      =           -9789.4352 kJ/(mole unit cells)
    Non-primitive unit cell  =          -19578.8703 kJ/(mole unit cells)
--------------------------------------------------------------------------------

  Final asymmetric unit coordinates :

--------------------------------------------------------------------------------
   No.  Atomic        x           y           z         Radius
        Label       (Frac)      (Frac)      (Frac)       (Angs) 
--------------------------------------------------------------------------------
     1  K     c     0.000000    0.500000    0.250000    0.000000
     2  Mn    c     0.000000    0.000000    0.000000    0.000000
     3  F     c     0.249999    0.749999    0.000000    0.000000
     4  F     c     0.000000    0.000000    0.250000    0.000000
     5  F     s     0.249999    0.749999    0.000000    0.000000
     6  F     s     0.000000    0.000000    0.250000    0.000000
--------------------------------------------------------------------------------

  Final Cartesian lattice vectors (Angstroms) :

       -2.757810    2.757810    3.900136
        2.757810   -2.757810    3.900136
        2.757810    2.757810   -3.900136


  Final cell parameters and derivatives :

--------------------------------------------------------------------------------
       a            5.515622 Angstrom     dE/de1(xx)    -0.000103 eV/strain
       b            5.515622 Angstrom     dE/de2(yy)     0.000000 eV/strain
       c            5.515622 Angstrom     dE/de3(zz)     0.000050 eV/strain
       alpha      120.000035 Degrees      dE/de4(yz)     0.000000 eV/strain
       beta       120.000035 Degrees      dE/de5(xz)     0.000000 eV/strain
       gamma       89.999940 Degrees      dE/de6(xy)     0.000000 eV/strain
--------------------------------------------------------------------------------

  Primitive cell volume =           118.650152 Angs**3

  Density of cell =      4.227754 g/cm**3

  Non-primitive lattice parameters :

  a    =     5.515619  b   =     5.515619  c    =     7.800272
  alpha=    90.000000  beta=    90.000000  gamma=    90.000000

  Non-primitive cell volume =           237.300303 Angs**3


  Final internal derivatives :

--------------------------------------------------------------------------------
   No.  Atomic          a             b             c           Radius
        Label          (eV)          (eV)          (eV)        (eV/Angs)
--------------------------------------------------------------------------------
      1 K     c       0.000000      0.000000      0.000000      0.000000
      2 Mn    c       0.000000      0.000000      0.000000      0.000000
      3 F     c      -0.001021      0.000000      0.000000      0.000000
      4 F     c       0.000000      0.000000      0.000000      0.000000
      5 F     s       0.000925      0.000000      0.000000      0.000000
      6 F     s       0.000000      0.000000      0.000000      0.000000
--------------------------------------------------------------------------------
  Maximum abs         0.001021      0.000000      0.000000      0.000000
--------------------------------------------------------------------------------


  Born effective charge tensors : 

-------------------------------------------------------------------------------
  Atom             x           y             z
-------------------------------------------------------------------------------
   1 K     x       1.2068      0.0000      0.0000
           y       0.0000      1.2068      0.0000
           z       0.0000      0.0000      1.2068
-------------------------------------------------------------------------------
   2 Mn    x       1.7255      0.0000      0.0000
           y       0.0000      1.7255      0.0000
           z       0.0000      0.0000      1.7255
-------------------------------------------------------------------------------
   3 F     x      -0.9885      0.0334      0.0000
           y       0.0334     -0.9885      0.0000
           z       0.0000      0.0000     -0.9552
-------------------------------------------------------------------------------
   4 F     x      -0.9552      0.0000      0.0000
           y       0.0000     -0.9552      0.0000
           z       0.0000      0.0000     -1.0219
-------------------------------------------------------------------------------




  Elastic Constant Matrix: (Units=GPa)

-------------------------------------------------------------------------------
  Indices      1         2         3         4         5         6    
-------------------------------------------------------------------------------
       1    197.2621   65.2904   65.9859    0.0000    0.0000    0.0000
       2     65.2904  197.2621   65.9859    0.0000    0.0000    0.0000
       3     65.9859   65.9859  196.5653    0.0000    0.0000    0.0000
       4      0.0000    0.0000    0.0000   65.9859    0.0000    0.0000
       5      0.0000    0.0000    0.0000    0.0000   65.9859    0.0000
       6      0.0000    0.0000    0.0000    0.0000    0.0000   65.2903
-------------------------------------------------------------------------------


  Elastic Compliance Matrix: (Units=1/GPa)

-------------------------------------------------------------------------------
  Indices      1         2         3         4         5         6    
-------------------------------------------------------------------------------
       1    0.006080 -0.001498 -0.001538  0.000000  0.000000  0.000000
       2   -0.001498  0.006080 -0.001538  0.000000  0.000000  0.000000
       3   -0.001538 -0.001538  0.006120  0.000000  0.000000  0.000000
       4    0.000000  0.000000  0.000000  0.015155  0.000000  0.000000
       5    0.000000  0.000000  0.000000  0.000000  0.015155  0.000000
       6    0.000000  0.000000  0.000000  0.000000  0.000000  0.015316
-------------------------------------------------------------------------------

  Mechanical properties :

-------------------------------------------------------------------------------
  Convention :                    Reuss         Voigt         Hill
-------------------------------------------------------------------------------
  Bulk  Modulus (GPa)     =     109.51263     109.51263     109.51263
  Shear Modulus (GPa)     =      65.70579      65.70756      65.70668
-------------------------------------------------------------------------------
  Velocity S-wave (km/s)  =       3.94228       3.94233       3.94230
  Velocity P-wave (km/s)  =       6.82827       6.82831       6.82829
-------------------------------------------------------------------------------
  Compressibility (1/GPa) =    0.00913137
-------------------------------------------------------------------------------
  Stress axis :                     x             y             z
-------------------------------------------------------------------------------
  Youngs Moduli (GPa)     =     164.48345     164.48345     163.39754
-------------------------------------------------------------------------------
  Poissons Ratio (x)      =                     0.24635       0.25132
  Poissons Ratio (y)      =       0.24635                     0.25132
  Poissons Ratio (z)      =       0.25299       0.25299
-------------------------------------------------------------------------------


  Piezoelectric Strain Matrix: (Units=C/m**2)

-------------------------------------------------------------------------------
  Indices      1         2         3         4         5         6    
-------------------------------------------------------------------------------
       x     0.00000   0.00000   0.00000   0.00000   0.00000   0.00000
       y     0.00000   0.00000   0.00000   0.00000   0.00000   0.00000
       z     0.00000   0.00000   0.00000   0.00000   0.00000   0.00000
-------------------------------------------------------------------------------


  Piezoelectric Stress Matrix: (Units=10**-11 C/N)

-------------------------------------------------------------------------------
  Indices      1         2         3         4         5         6    
-------------------------------------------------------------------------------
       x     0.00000   0.00000   0.00000   0.00000   0.00000   0.00000
       y     0.00000   0.00000   0.00000   0.00000   0.00000   0.00000
       z     0.00000   0.00000   0.00000   0.00000   0.00000   0.00000
-------------------------------------------------------------------------------


  Static dielectric constant tensor : 

-------------------------------------------------------------------------------
              x         y         z
-------------------------------------------------------------------------------
       x     4.82130   0.00000   0.00000
       y     0.00000   4.82130   0.00000
       z     0.00000   0.00000   4.82133
--------------------------------------------------------------------------------

  High frequency dielectric constant tensor : 

-------------------------------------------------------------------------------
              x         y         z
-------------------------------------------------------------------------------
       x     1.68164   0.00000   0.00000
       y     0.00000   1.68164   0.00000
       z     0.00000   0.00000   1.68162
-------------------------------------------------------------------------------

  Static refractive indices : 

-------------------------------------------------------------------------------
    1 =    2.19575      2 =    2.19575      3 =    2.19575
-------------------------------------------------------------------------------

  High frequency refractive indices : 

-------------------------------------------------------------------------------
    1 =    1.29677      2 =    1.29678      3 =    1.29678
-------------------------------------------------------------------------------


  Time to end of optimisation =       0.0824 seconds


  Peak dynamic memory used =       0.59 MB 


  Timing analysis for GULP :

--------------------------------------------------------------------------------
  Task / Subroutine                                          Time (Seconds)
--------------------------------------------------------------------------------
  Calculation of reciprocal space energy and derivatives          0.0011
  Calculation of reciprocal space energy using symmetry           0.0028
  Calculation of real space energy and derivatives                0.0071
  Calculation of real space energy using symmetry                 0.0677
  Symmetry generation of equivalent positions                     0.0004
--------------------------------------------------------------------------------
  Total CPU time                                                  0.0825
--------------------------------------------------------------------------------


  CIF file written as perov.cif                                               


  Job Finished at 14:50.39 22nd February   2017                               

