********************************************************************************
*                       GENERAL UTILITY LATTICE PROGRAM                        *
*                                 Julian Gale                                  *
*                      Nanochemistry Research Institute                        *
*                           Department of Chemistry                            *
*                    Curtin University, Western Australia                      *
********************************************************************************
* Version = 4.3.2 * Last modified =  3rd March 2015                            *
********************************************************************************
*  optimise     - perform optimisation run                                     *
*  conp         - constant pressure calculation                                *
*  property     - calculate properties for final geometry                      *
********************************************************************************

  Job Started  at 14:50.33 22nd February   2017                               

  Number of CPUs =     1


  Total number of configurations input =   1

********************************************************************************
*  Input for Configuration =   1                                               *
********************************************************************************

  Formula = K2Mn2F6                                                     

  Number of irreducible atoms/shells =       6


  Total number atoms/shells =      16

  Dimensionality = 3               :  Bulk   


  Symmetry :

  Crystal family                   :  Tetragonal  
  Crystal class  (Groth - 1921)    :  Ditetragonal Dipyramidal             

  Space group (centrosymmetric)    :  I 4/M C M       

  Patterson group                  :  I 4/m m m

  Cartesian lattice vectors (Angstroms) :

       -2.100000    2.100000    2.100000
        2.100000   -2.100000    2.100000
        2.100000    2.100000   -2.100000

  Primitive cell parameters :            Full cell parameters :

  a =   3.6373    alpha = 109.4712       a =   4.2000    alpha =  90.0000
  b =   3.6373    beta  = 109.4712       b =   4.2000    beta  =  90.0000
  c =   3.6373    gamma = 109.4712       c =   4.2000    gamma =  90.0000

  Initial volumes (Angstroms**3):

  Primitive cell =          37.044000    Full cell =          74.088000

  Temperature of configuration =  0.000     K 

  Pressure of configuration =         0.000 GPa 

  Fractional coordinates of asymmetric unit :

--------------------------------------------------------------------------------
   No.  Atomic       x           y          z         Charge      Occupancy
        Label      (Frac)      (Frac)     (Frac)        (e)         (Frac)  
--------------------------------------------------------------------------------
      1 K     c    0.000000    0.500000    0.250000     0.70000    1.000000    
      2 Mn    c    0.000000    0.000000    0.000000     2.20000    1.000000    
      3 F     c    0.240600 *  0.740600    0.000000     0.37800    1.000000    
      4 F     c    0.000000    0.000000    0.250000     0.37800    1.000000    
      5 F     s    0.240600 *  0.740600    0.000000    -1.34467    1.000000    
      6 F     s    0.000000    0.000000    0.250000    -1.34467    1.000000    
--------------------------------------------------------------------------------


  Constraints : 

--------------------------------------------------------------------------------
  Constraint no.      Unconstrained     Constrained    Coefficient    Offset
                         Variable         Variable
--------------------------------------------------------------------------------
           1              Strain 1        Strain 2       1.00000      0.0000
           2                 3 x             3 y         1.00000      0.5000
           3                 5 x             5 y         1.00000      0.5000
--------------------------------------------------------------------------------


********************************************************************************
*  General input information                                                   *
********************************************************************************

  Species output for all configurations : 

--------------------------------------------------------------------------------
  Species    Type    Atomic    Atomic    Charge       Radii (Angs)     Library
                     Number     Mass       (e)     Cova   Ionic  VDW   Symbol
--------------------------------------------------------------------------------
    K        Core       19      39.10   0.700000   1.330  0.000  2.800          
    Mn       Core       25      54.94   2.200000   1.350  0.000  2.010          
    F        Core        9      19.00   0.378000   0.710  0.000  1.300          
    F        Shell       9       0.00  -1.344667   0.710  0.000  1.300          
--------------------------------------------------------------------------------


  Lattice summation method               =    Ewald          (3-D)
                                         =    Parry          (2-D)
                                         =    Saunders et al (1-D)
  Accuracy factor for lattice sums       =   12.000


  Time limit = Infinity

  Maximum range for interatomic potentials =    100000.000000 Angstroms

  General interatomic potentials :

--------------------------------------------------------------------------------
Atom  Types   Potential         A         B         C         D     Cutoffs(Ang)
  1     2                                                            Min    Max 
--------------------------------------------------------------------------------
K    c K    c Buckingham    0.219E+04 0.192      0.00      0.00     0.000 10.000
Mn   c F    s Buckingham    0.148E+04 0.266      0.00      0.00     0.000 10.000
F    s F    s Buckingham     912.     0.271      20.0      0.00     0.000 10.000
K    c F    s Buckingham    0.352E+04 0.267      0.00      0.00     0.000 10.000
F    c F    s Spring (c-s)   23.2      0.00      0.00      0.00     0.000  0.800
--------------------------------------------------------------------------------

********************************************************************************
*  Output for configuration   1                                                *
********************************************************************************


  Components of energy : 

--------------------------------------------------------------------------------
  Interatomic potentials     =         246.60489277 eV
  Monopole - monopole (real) =         -53.61829107 eV
  Monopole - monopole (recip)=         -87.81956193 eV
  Monopole - monopole (total)=        -141.43785301 eV
--------------------------------------------------------------------------------
  Total lattice energy : 
    Primitive unit cell      =         105.16703976 eV
    Non-primitive unit cell  =         210.33407953 eV
--------------------------------------------------------------------------------
  Total lattice energy (in kJmol-1): 
    Primitive unit cell      =           10147.0117 kJ/(mole unit cells)
    Non-primitive unit cell  =           20294.0234 kJ/(mole unit cells)
--------------------------------------------------------------------------------


  Number of variables =        4

  Maximum number of calculations  =          1000
  Maximum Hessian update interval =            10
  Maximum step size               =   1.000000000
  Maximum parameter tolerance     =   0.000010000
  Maximum function  tolerance     =   0.000010000
  Maximum gradient  tolerance     =   0.001000000
  Maximum gradient  component     =   0.010000000

  Symmetry constrained optimisation

  Symmetry used for second derivatives

  Cell parameters to be optimised using strains

  Newton-Raphson optimiser to be used

  BFGS hessian update to be used

  Start of bulk optimisation :

  Cycle:      0 Energy:       105.167040  Gnorm:    213.451710  CPU:    0.010
  ** Hessian calculated **
  Cycle:      1 Energy:       -78.771382  Gnorm:      5.618148  CPU:    0.031
  ** Hessian calculated **
  Cycle:      2 Energy:       -79.405616  Gnorm:      1.854706  CPU:    0.043
  Cycle:      3 Energy:       -79.430738  Gnorm:      0.672544  CPU:    0.052
  Cycle:      4 Energy:       -79.433343  Gnorm:      0.343490  CPU:    0.060
  Cycle:      5 Energy:       -79.433675  Gnorm:      0.058391  CPU:    0.067
  Cycle:      6 Energy:       -79.433680  Gnorm:      0.002206  CPU:    0.075


  **** Optimisation achieved ****


  Final energy =     -79.43368031 eV
  Final Gnorm  =       0.00055434

  Components of energy : 

--------------------------------------------------------------------------------
  Interatomic potentials     =          10.62604698 eV
  Monopole - monopole (real) =         -17.74060081 eV
  Monopole - monopole (recip)=         -72.31912648 eV
  Monopole - monopole (total)=         -90.05972729 eV
--------------------------------------------------------------------------------
  Total lattice energy : 
    Primitive unit cell      =         -79.43368031 eV
    Non-primitive unit cell  =        -158.86736061 eV
--------------------------------------------------------------------------------
  Total lattice energy (in kJmol-1): 
    Primitive unit cell      =           -7664.1359 kJ/(mole unit cells)
    Non-primitive unit cell  =          -15328.2718 kJ/(mole unit cells)
--------------------------------------------------------------------------------

  Final asymmetric unit coordinates :

--------------------------------------------------------------------------------
   No.  Atomic        x           y           z         Radius
        Label       (Frac)      (Frac)      (Frac)       (Angs) 
--------------------------------------------------------------------------------
     1  K     c     0.000000    0.500000    0.250000    0.000000
     2  Mn    c     0.000000    0.000000    0.000000    0.000000
     3  F     c     0.250001    0.750001    0.000000    0.000000
     4  F     c     0.000000    0.000000    0.250000    0.000000
     5  F     s     0.250000    0.750000    0.000000    0.000000
     6  F     s     0.000000    0.000000    0.250000    0.000000
--------------------------------------------------------------------------------

  Final Cartesian lattice vectors (Angstroms) :

       -2.851773    2.851773    4.033025
        2.851773   -2.851773    4.033025
        2.851773    2.851773   -4.033025


  Final cell parameters and derivatives :

--------------------------------------------------------------------------------
       a            5.703552 Angstrom     dE/de1(xx)    -0.000109 eV/strain
       b            5.703552 Angstrom     dE/de2(yy)     0.000000 eV/strain
       c            5.703552 Angstrom     dE/de3(zz)     0.000131 eV/strain
       alpha      120.000073 Degrees      dE/de4(yz)     0.000000 eV/strain
       beta       120.000073 Degrees      dE/de5(xz)     0.000000 eV/strain
       gamma       89.999874 Degrees      dE/de6(xy)     0.000000 eV/strain
--------------------------------------------------------------------------------

  Primitive cell volume =           131.196055 Angs**3

  Density of cell =      3.823466 g/cm**3

  Non-primitive lattice parameters :

  a    =     5.703546  b   =     5.703546  c    =     8.066050
  alpha=    90.000000  beta=    90.000000  gamma=    90.000000

  Non-primitive cell volume =           262.392111 Angs**3


  Final internal derivatives :

--------------------------------------------------------------------------------
   No.  Atomic          a             b             c           Radius
        Label          (eV)          (eV)          (eV)        (eV/Angs)
--------------------------------------------------------------------------------
      1 K     c       0.000000      0.000000      0.000000      0.000000
      2 Mn    c       0.000000      0.000000      0.000000      0.000000
      3 F     c       0.001610      0.000000      0.000000      0.000000
      4 F     c       0.000000      0.000000      0.000000      0.000000
      5 F     s      -0.001515      0.000000      0.000000      0.000000
      6 F     s       0.000000      0.000000      0.000000      0.000000
--------------------------------------------------------------------------------
  Maximum abs         0.001610      0.000000      0.000000      0.000000
--------------------------------------------------------------------------------


  Born effective charge tensors : 

-------------------------------------------------------------------------------
  Atom             x           y             z
-------------------------------------------------------------------------------
   1 K     x       0.6371      0.0000      0.0000
           y       0.0000      0.6371      0.0000
           z       0.0000      0.0000      0.6371
-------------------------------------------------------------------------------
   2 Mn    x       1.8095      0.0000      0.0000
           y       0.0000      1.8095      0.0000
           z       0.0000      0.0000      1.8096
-------------------------------------------------------------------------------
   3 F     x      -0.8428      0.0818      0.0000
           y       0.0818     -0.8428      0.0000
           z       0.0000      0.0000     -0.7610
-------------------------------------------------------------------------------
   4 F     x      -0.7610      0.0000      0.0000
           y       0.0000     -0.7610      0.0000
           z       0.0000      0.0000     -0.9247
-------------------------------------------------------------------------------




  Elastic Constant Matrix: (Units=GPa)

-------------------------------------------------------------------------------
  Indices      1         2         3         4         5         6    
-------------------------------------------------------------------------------
       1    143.0009   51.2872   45.8568    0.0000    0.0000    0.0000
       2     51.2872  143.0009   45.8568    0.0000    0.0000    0.0000
       3     45.8568   45.8568  148.4292    0.0000    0.0000    0.0000
       4      0.0000    0.0000    0.0000   45.8568    0.0000    0.0000
       5      0.0000    0.0000    0.0000    0.0000   45.8568    0.0000
       6      0.0000    0.0000    0.0000    0.0000    0.0000   51.2872
-------------------------------------------------------------------------------


  Elastic Compliance Matrix: (Units=1/GPa)

-------------------------------------------------------------------------------
  Indices      1         2         3         4         5         6    
-------------------------------------------------------------------------------
       1    0.008465 -0.002439 -0.001862  0.000000  0.000000  0.000000
       2   -0.002439  0.008465 -0.001862  0.000000  0.000000  0.000000
       3   -0.001862 -0.001862  0.007888  0.000000  0.000000  0.000000
       4    0.000000  0.000000  0.000000  0.021807  0.000000  0.000000
       5    0.000000  0.000000  0.000000  0.000000  0.021807  0.000000
       6    0.000000  0.000000  0.000000  0.000000  0.000000  0.019498
-------------------------------------------------------------------------------

  Mechanical properties :

-------------------------------------------------------------------------------
  Convention :                    Reuss         Voigt         Hill
-------------------------------------------------------------------------------
  Bulk  Modulus (GPa)     =      80.04809      80.04809      80.04809
  Shear Modulus (GPa)     =      47.88478      48.02886      47.95682
-------------------------------------------------------------------------------
  Velocity S-wave (km/s)  =       3.53892       3.54424       3.54158
  Velocity P-wave (km/s)  =       6.13470       6.13880       6.13675
-------------------------------------------------------------------------------
  Compressibility (1/GPa) =    0.01249249
-------------------------------------------------------------------------------
  Stress axis :                     x             y             z
-------------------------------------------------------------------------------
  Youngs Moduli (GPa)     =     118.13852     118.13852     126.78256
-------------------------------------------------------------------------------
  Poissons Ratio (x)      =                     0.28812       0.23602
  Poissons Ratio (y)      =       0.28812                     0.23602
  Poissons Ratio (z)      =       0.21993       0.21993
-------------------------------------------------------------------------------


  Piezoelectric Strain Matrix: (Units=C/m**2)

-------------------------------------------------------------------------------
  Indices      1         2         3         4         5         6    
-------------------------------------------------------------------------------
       x     0.00000   0.00000   0.00000   0.00000   0.00000   0.00000
       y     0.00000   0.00000   0.00000   0.00000   0.00000   0.00000
       z     0.00000   0.00000   0.00000   0.00000   0.00000   0.00000
-------------------------------------------------------------------------------


  Piezoelectric Stress Matrix: (Units=10**-11 C/N)

-------------------------------------------------------------------------------
  Indices      1         2         3         4         5         6    
-------------------------------------------------------------------------------
       x     0.00000   0.00000   0.00000   0.00000   0.00000   0.00000
       y     0.00000   0.00000   0.00000   0.00000   0.00000   0.00000
       z     0.00000   0.00000   0.00000   0.00000   0.00000   0.00000
-------------------------------------------------------------------------------


  Static dielectric constant tensor : 

-------------------------------------------------------------------------------
              x         y         z
-------------------------------------------------------------------------------
       x     3.40265   0.00000   0.00000
       y     0.00000   3.40265   0.00000
       z     0.00000   0.00000   3.40270
--------------------------------------------------------------------------------

  High frequency dielectric constant tensor : 

-------------------------------------------------------------------------------
              x         y         z
-------------------------------------------------------------------------------
       x     1.61150   0.00000   0.00000
       y     0.00000   1.61150   0.00000
       z     0.00000   0.00000   1.61150
-------------------------------------------------------------------------------

  Static refractive indices : 

-------------------------------------------------------------------------------
    1 =    1.84463      2 =    1.84463      3 =    1.84464
-------------------------------------------------------------------------------

  High frequency refractive indices : 

-------------------------------------------------------------------------------
    1 =    1.26945      2 =    1.26945      3 =    1.26945
-------------------------------------------------------------------------------


  Time to end of optimisation =       0.0903 seconds


  Peak dynamic memory used =       0.59 MB 


  Timing analysis for GULP :

--------------------------------------------------------------------------------
  Task / Subroutine                                          Time (Seconds)
--------------------------------------------------------------------------------
  Calculation of reciprocal space energy and derivatives          0.0012
  Calculation of reciprocal space energy using symmetry           0.0032
  Calculation of real space energy and derivatives                0.0066
  Calculation of real space energy using symmetry                 0.0755
  Symmetry generation of equivalent positions                     0.0004
--------------------------------------------------------------------------------
  Total CPU time                                                  0.0903
--------------------------------------------------------------------------------


  CIF file written as perov.cif                                               


  Job Finished at 14:50.33 22nd February   2017                               

