********************************************************************************
*                       GENERAL UTILITY LATTICE PROGRAM                        *
*                                 Julian Gale                                  *
*                      Nanochemistry Research Institute                        *
*                           Department of Chemistry                            *
*                    Curtin University, Western Australia                      *
********************************************************************************
* Version = 4.3.2 * Last modified =  3rd March 2015                            *
********************************************************************************
*  optimise     - perform optimisation run                                     *
*  conp         - constant pressure calculation                                *
*  property     - calculate properties for final geometry                      *
********************************************************************************

  Job Started  at 14:50.39 22nd February   2017                               

  Number of CPUs =     1


  Total number of configurations input =   1

********************************************************************************
*  Input for Configuration =   1                                               *
********************************************************************************

  Formula = K2Mn2F6                                                     

  Number of irreducible atoms/shells =       6


  Total number atoms/shells =      16

  Dimensionality = 3               :  Bulk   


  Symmetry :

  Crystal family                   :  Tetragonal  
  Crystal class  (Groth - 1921)    :  Ditetragonal Dipyramidal             

  Space group (centrosymmetric)    :  I 4/M C M       

  Patterson group                  :  I 4/m m m

  Cartesian lattice vectors (Angstroms) :

       -2.100000    2.100000    2.100000
        2.100000   -2.100000    2.100000
        2.100000    2.100000   -2.100000

  Primitive cell parameters :            Full cell parameters :

  a =   3.6373    alpha = 109.4712       a =   4.2000    alpha =  90.0000
  b =   3.6373    beta  = 109.4712       b =   4.2000    beta  =  90.0000
  c =   3.6373    gamma = 109.4712       c =   4.2000    gamma =  90.0000

  Initial volumes (Angstroms**3):

  Primitive cell =          37.044000    Full cell =          74.088000

  Temperature of configuration =  0.000     K 

  Pressure of configuration =         0.000 GPa 

  Fractional coordinates of asymmetric unit :

--------------------------------------------------------------------------------
   No.  Atomic       x           y          z         Charge      Occupancy
        Label      (Frac)      (Frac)     (Frac)        (e)         (Frac)  
--------------------------------------------------------------------------------
      1 K     c    0.000000    0.500000    0.250000     1.20000    1.000000    
      2 Mn    c    0.000000    0.000000    0.000000     2.00000    1.000000    
      3 F     c    0.240600 *  0.740600    0.000000     0.37800    1.000000    
      4 F     c    0.000000    0.000000    0.250000     0.37800    1.000000    
      5 F     s    0.240600 *  0.740600    0.000000    -1.44467    1.000000    
      6 F     s    0.000000    0.000000    0.250000    -1.44467    1.000000    
--------------------------------------------------------------------------------


  Constraints : 

--------------------------------------------------------------------------------
  Constraint no.      Unconstrained     Constrained    Coefficient    Offset
                         Variable         Variable
--------------------------------------------------------------------------------
           1              Strain 1        Strain 2       1.00000      0.0000
           2                 3 x             3 y         1.00000      0.5000
           3                 5 x             5 y         1.00000      0.5000
--------------------------------------------------------------------------------


********************************************************************************
*  General input information                                                   *
********************************************************************************

  Species output for all configurations : 

--------------------------------------------------------------------------------
  Species    Type    Atomic    Atomic    Charge       Radii (Angs)     Library
                     Number     Mass       (e)     Cova   Ionic  VDW   Symbol
--------------------------------------------------------------------------------
    K        Core       19      39.10   1.200000   1.330  0.000  2.800          
    Mn       Core       25      54.94   2.000000   1.350  0.000  2.010          
    F        Core        9      19.00   0.378000   0.710  0.000  1.300          
    F        Shell       9       0.00  -1.444667   0.710  0.000  1.300          
--------------------------------------------------------------------------------


  Lattice summation method               =    Ewald          (3-D)
                                         =    Parry          (2-D)
                                         =    Saunders et al (1-D)
  Accuracy factor for lattice sums       =   12.000


  Time limit = Infinity

  Maximum range for interatomic potentials =    100000.000000 Angstroms

  General interatomic potentials :

--------------------------------------------------------------------------------
Atom  Types   Potential         A         B         C         D     Cutoffs(Ang)
  1     2                                                            Min    Max 
--------------------------------------------------------------------------------
K    c K    c Buckingham    0.219E+04 0.192      0.00      0.00     0.000 10.000
Mn   c F    s Buckingham    0.148E+04 0.266      0.00      0.00     0.000 10.000
F    s F    s Buckingham     912.     0.271      20.0      0.00     0.000 10.000
K    c F    s Buckingham    0.352E+04 0.267      0.00      0.00     0.000 10.000
F    c F    s Spring (c-s)   26.8      0.00      0.00      0.00     0.000  0.800
--------------------------------------------------------------------------------

********************************************************************************
*  Output for configuration   1                                                *
********************************************************************************


  Components of energy : 

--------------------------------------------------------------------------------
  Interatomic potentials     =         246.60489277 eV
  Monopole - monopole (real) =         -56.66212530 eV
  Monopole - monopole (recip)=         -95.71537880 eV
  Monopole - monopole (total)=        -152.37750410 eV
--------------------------------------------------------------------------------
  Total lattice energy : 
    Primitive unit cell      =          94.22738867 eV
    Non-primitive unit cell  =         188.45477733 eV
--------------------------------------------------------------------------------
  Total lattice energy (in kJmol-1): 
    Primitive unit cell      =            9091.5026 kJ/(mole unit cells)
    Non-primitive unit cell  =           18183.0052 kJ/(mole unit cells)
--------------------------------------------------------------------------------


  Number of variables =        4

  Maximum number of calculations  =          1000
  Maximum Hessian update interval =            10
  Maximum step size               =   1.000000000
  Maximum parameter tolerance     =   0.000010000
  Maximum function  tolerance     =   0.000010000
  Maximum gradient  tolerance     =   0.001000000
  Maximum gradient  component     =   0.010000000

  Symmetry constrained optimisation

  Symmetry used for second derivatives

  Cell parameters to be optimised using strains

  Newton-Raphson optimiser to be used

  BFGS hessian update to be used

  Start of bulk optimisation :

  Cycle:      0 Energy:        94.227389  Gnorm:    210.964377  CPU:    0.010
  ** Hessian calculated **
  Cycle:      1 Energy:       -86.174935  Gnorm:      5.636054  CPU:    0.031
  ** Hessian calculated **
  Cycle:      2 Energy:       -86.677141  Gnorm:      1.727604  CPU:    0.043
  Cycle:      3 Energy:       -86.688132  Gnorm:      1.055184  CPU:    0.051
  Cycle:      4 Energy:       -86.690132  Gnorm:      0.195243  CPU:    0.059
  Cycle:      5 Energy:       -86.690381  Gnorm:      0.116597  CPU:    0.066
  Cycle:      6 Energy:       -86.690400  Gnorm:      0.007674  CPU:    0.074


  **** Optimisation achieved ****


  Final energy =     -86.69040047 eV
  Final Gnorm  =       0.00094185

  Components of energy : 

--------------------------------------------------------------------------------
  Interatomic potentials     =          11.74093027 eV
  Monopole - monopole (real) =         -18.93333997 eV
  Monopole - monopole (recip)=         -79.49799077 eV
  Monopole - monopole (total)=         -98.43133074 eV
--------------------------------------------------------------------------------
  Total lattice energy : 
    Primitive unit cell      =         -86.69040047 eV
    Non-primitive unit cell  =        -173.38080094 eV
--------------------------------------------------------------------------------
  Total lattice energy (in kJmol-1): 
    Primitive unit cell      =           -8364.2985 kJ/(mole unit cells)
    Non-primitive unit cell  =          -16728.5969 kJ/(mole unit cells)
--------------------------------------------------------------------------------

  Final asymmetric unit coordinates :

--------------------------------------------------------------------------------
   No.  Atomic        x           y           z         Radius
        Label       (Frac)      (Frac)      (Frac)       (Angs) 
--------------------------------------------------------------------------------
     1  K     c     0.000000    0.500000    0.250000    0.000000
     2  Mn    c     0.000000    0.000000    0.000000    0.000000
     3  F     c     0.250001    0.750001    0.000000    0.000000
     4  F     c     0.000000    0.000000    0.250000    0.000000
     5  F     s     0.250002    0.750002    0.000000    0.000000
     6  F     s     0.000000    0.000000    0.250000    0.000000
--------------------------------------------------------------------------------

  Final Cartesian lattice vectors (Angstroms) :

       -2.818219    2.818219    3.985564
        2.818219   -2.818219    3.985564
        2.818219    2.818219   -3.985564


  Final cell parameters and derivatives :

--------------------------------------------------------------------------------
       a            5.636438 Angstrom     dE/de1(xx)     0.000560 eV/strain
       b            5.636438 Angstrom     dE/de2(yy)     0.000000 eV/strain
       c            5.636438 Angstrom     dE/de3(zz)     0.000282 eV/strain
       alpha      120.000000 Degrees      dE/de4(yz)     0.000000 eV/strain
       beta       120.000000 Degrees      dE/de5(xz)     0.000000 eV/strain
       gamma       90.000000 Degrees      dE/de6(xy)     0.000000 eV/strain
--------------------------------------------------------------------------------

  Primitive cell volume =           126.619118 Angs**3

  Density of cell =      3.961674 g/cm**3

  Non-primitive lattice parameters :

  a    =     5.636438  b   =     5.636438  c    =     7.971128
  alpha=    90.000000  beta=    90.000000  gamma=    90.000000

  Non-primitive cell volume =           253.238236 Angs**3


  Final internal derivatives :

--------------------------------------------------------------------------------
   No.  Atomic          a             b             c           Radius
        Label          (eV)          (eV)          (eV)        (eV/Angs)
--------------------------------------------------------------------------------
      1 K     c       0.000000      0.000000      0.000000      0.000000
      2 Mn    c       0.000000      0.000000      0.000000      0.000000
      3 F     c      -0.002542      0.000000      0.000000      0.000000
      4 F     c       0.000000      0.000000      0.000000      0.000000
      5 F     s       0.002709      0.000000      0.000000      0.000000
      6 F     s       0.000000      0.000000      0.000000      0.000000
--------------------------------------------------------------------------------
  Maximum abs         0.002709      0.000000      0.000000      0.000000
--------------------------------------------------------------------------------


  Born effective charge tensors : 

-------------------------------------------------------------------------------
  Atom             x           y             z
-------------------------------------------------------------------------------
   1 K     x       1.2344      0.0000      0.0000
           y       0.0000      1.2344      0.0000
           z       0.0000      0.0000      1.2344
-------------------------------------------------------------------------------
   2 Mn    x       1.5395      0.0000      0.0000
           y       0.0000      1.5395      0.0000
           z       0.0000      0.0000      1.5395
-------------------------------------------------------------------------------
   3 F     x      -0.9242     -0.0012      0.0000
           y      -0.0012     -0.9242      0.0000
           z       0.0000      0.0000     -0.9254
-------------------------------------------------------------------------------
   4 F     x      -0.9254      0.0000      0.0000
           y       0.0000     -0.9254      0.0000
           z       0.0000      0.0000     -0.9230
-------------------------------------------------------------------------------




  Elastic Constant Matrix: (Units=GPa)

-------------------------------------------------------------------------------
  Indices      1         2         3         4         5         6    
-------------------------------------------------------------------------------
       1    159.6227   58.1462   50.7379    0.0000    0.0000    0.0000
       2     58.1462  159.6227   50.7379    0.0000    0.0000    0.0000
       3     50.7379   50.7379  167.0309    0.0000    0.0000    0.0000
       4      0.0000    0.0000    0.0000   50.7382    0.0000    0.0000
       5      0.0000    0.0000    0.0000    0.0000   50.7382    0.0000
       6      0.0000    0.0000    0.0000    0.0000    0.0000   58.1465
-------------------------------------------------------------------------------


  Elastic Compliance Matrix: (Units=1/GPa)

-------------------------------------------------------------------------------
  Indices      1         2         3         4         5         6    
-------------------------------------------------------------------------------
       1    0.007602 -0.002253 -0.001625  0.000000  0.000000  0.000000
       2   -0.002253  0.007602 -0.001625  0.000000  0.000000  0.000000
       3   -0.001625 -0.001625  0.006974  0.000000  0.000000  0.000000
       4    0.000000  0.000000  0.000000  0.019709  0.000000  0.000000
       5    0.000000  0.000000  0.000000  0.000000  0.019709  0.000000
       6    0.000000  0.000000  0.000000  0.000000  0.000000  0.017198
-------------------------------------------------------------------------------

  Mechanical properties :

-------------------------------------------------------------------------------
  Convention :                    Reuss         Voigt         Hill
-------------------------------------------------------------------------------
  Bulk  Modulus (GPa)     =      89.50224      89.50224      89.50224
  Shear Modulus (GPa)     =      53.46286      53.70156      53.58221
-------------------------------------------------------------------------------
  Velocity S-wave (km/s)  =       3.67356       3.68175       3.67765
  Velocity P-wave (km/s)  =       6.37067       6.37697       6.37382
-------------------------------------------------------------------------------
  Compressibility (1/GPa) =    0.01117290
-------------------------------------------------------------------------------
  Stress axis :                     x             y             z
-------------------------------------------------------------------------------
  Youngs Moduli (GPa)     =     131.54702     131.54702     143.38814
-------------------------------------------------------------------------------
  Poissons Ratio (x)      =                     0.29633       0.23299
  Poissons Ratio (y)      =       0.29633                     0.23299
  Poissons Ratio (z)      =       0.21375       0.21375
-------------------------------------------------------------------------------


  Piezoelectric Strain Matrix: (Units=C/m**2)

-------------------------------------------------------------------------------
  Indices      1         2         3         4         5         6    
-------------------------------------------------------------------------------
       x     0.00000   0.00000   0.00000   0.00000   0.00000   0.00000
       y     0.00000   0.00000   0.00000   0.00000   0.00000   0.00000
       z     0.00000   0.00000   0.00000   0.00000   0.00000   0.00000
-------------------------------------------------------------------------------


  Piezoelectric Stress Matrix: (Units=10**-11 C/N)

-------------------------------------------------------------------------------
  Indices      1         2         3         4         5         6    
-------------------------------------------------------------------------------
       x     0.00000   0.00000   0.00000   0.00000   0.00000   0.00000
       y     0.00000   0.00000   0.00000   0.00000   0.00000   0.00000
       z     0.00000   0.00000   0.00000   0.00000   0.00000   0.00000
-------------------------------------------------------------------------------


  Static dielectric constant tensor : 

-------------------------------------------------------------------------------
              x         y         z
-------------------------------------------------------------------------------
       x     5.44077   0.00000   0.00000
       y     0.00000   5.44077   0.00000
       z     0.00000   0.00000   5.44077
--------------------------------------------------------------------------------

  High frequency dielectric constant tensor : 

-------------------------------------------------------------------------------
              x         y         z
-------------------------------------------------------------------------------
       x     1.64094   0.00000   0.00000
       y     0.00000   1.64094   0.00000
       z     0.00000   0.00000   1.64094
-------------------------------------------------------------------------------

  Static refractive indices : 

-------------------------------------------------------------------------------
    1 =    2.33255      2 =    2.33255      3 =    2.33255
-------------------------------------------------------------------------------

  High frequency refractive indices : 

-------------------------------------------------------------------------------
    1 =    1.28099      2 =    1.28099      3 =    1.28099
-------------------------------------------------------------------------------


  Time to end of optimisation =       0.0893 seconds


  Peak dynamic memory used =       0.59 MB 


  Timing analysis for GULP :

--------------------------------------------------------------------------------
  Task / Subroutine                                          Time (Seconds)
--------------------------------------------------------------------------------
  Calculation of reciprocal space energy and derivatives          0.0012
  Calculation of reciprocal space energy using symmetry           0.0031
  Calculation of real space energy and derivatives                0.0065
  Calculation of real space energy using symmetry                 0.0747
  Symmetry generation of equivalent positions                     0.0004
--------------------------------------------------------------------------------
  Total CPU time                                                  0.0893
--------------------------------------------------------------------------------


  CIF file written as perov.cif                                               


  Job Finished at 14:50.39 22nd February   2017                               

