********************************************************************************
*                       GENERAL UTILITY LATTICE PROGRAM                        *
*                                 Julian Gale                                  *
*                      Nanochemistry Research Institute                        *
*                           Department of Chemistry                            *
*                    Curtin University, Western Australia                      *
********************************************************************************
* Version = 4.3.2 * Last modified =  3rd March 2015                            *
********************************************************************************
*  optimise     - perform optimisation run                                     *
*  cell_only    - only optimise unit cell                                      *
*  property     - calculate properties for final geometry                      *
********************************************************************************

  Job Started  at 09:30.43  6th April      2017                               

  Number of CPUs =     1


  Total number of configurations input =   1

********************************************************************************
*  Input for Configuration =   1                                               *
********************************************************************************

  Formula = Tb2Ba2O6                                                    

  Number of irreducible atoms/shells =       4


  Total number atoms/shells =      16

  Dimensionality = 3               :  Bulk   


  Symmetry :

  Crystal family                   :  Hexagonal   
  Crystal class  (Groth - 1921)    :  Ditrigonal Scalenohedral             

  Space group (centrosymmetric)    :  R -3 C          

  Patterson group                  :  R -3 m   

  Cartesian lattice vectors (Angstroms) :

        3.039900    1.755087    4.922700
       -3.039900    1.755087    4.922700
        0.000000   -3.510174    4.922700

  Primitive cell parameters :            Full cell parameters :

  a =   6.0460    alpha =  60.3700       a =   6.0798    alpha =  90.0000
  b =   6.0460    beta  =  60.3700       b =   6.0798    beta  =  90.0000
  c =   6.0460    gamma =  60.3700       c =  14.7681    gamma = 120.0000

  Initial volumes (Angstroms**3):

  Primitive cell =         157.584170    Full cell =         472.752509

  Temperature of configuration =  0.000     K 

  Pressure of configuration =         0.000 GPa 

  Fractional coordinates of asymmetric unit :

--------------------------------------------------------------------------------
   No.  Atomic       x           y          z         Charge      Occupancy
        Label      (Frac)      (Frac)     (Frac)        (e)         (Frac)  
--------------------------------------------------------------------------------
      1 Tb    c    0.000000    0.000000    0.000000     1.40000    1.000000    
      2 Ba    c    0.000000    0.000000    0.250000     1.80000    1.000000    
      3 O     c    0.462400    0.000000    0.250000     0.37800    1.000000    
      4 O     s    0.462400    0.000000    0.250000    -1.44467    1.000000    
--------------------------------------------------------------------------------


  Constraints : 

--------------------------------------------------------------------------------
  Constraint no.      Unconstrained     Constrained    Coefficient    Offset
                         Variable         Variable
--------------------------------------------------------------------------------
           1              Strain 1        Strain 2       1.00000      0.0000
--------------------------------------------------------------------------------


********************************************************************************
*  General input information                                                   *
********************************************************************************

  Species output for all configurations : 

--------------------------------------------------------------------------------
  Species    Type    Atomic    Atomic    Charge       Radii (Angs)     Library
                     Number     Mass       (e)     Cova   Ionic  VDW   Symbol
--------------------------------------------------------------------------------
    Tb       Core       65     158.93   1.400000   1.760  0.000  2.630          
    Ba       Core       56     137.33   1.800000   1.340  0.000  2.000          
    O        Core        8      16.00   0.378000   0.730  0.000  1.360          
    O        Shell       8       0.00  -1.444667   0.730  0.000  1.360          
--------------------------------------------------------------------------------


  Lattice summation method               =    Ewald          (3-D)
                                         =    Parry          (2-D)
                                         =    Saunders et al (1-D)
  Accuracy factor for lattice sums       =   12.000


  Time limit = Infinity

  Maximum range for interatomic potentials =    100000.000000 Angstroms

  General interatomic potentials :

--------------------------------------------------------------------------------
Atom  Types   Potential         A         B         C         D     Cutoffs(Ang)
  1     2                                                            Min    Max 
--------------------------------------------------------------------------------
Ba   c Ba   c Buckingham    0.219E+04 0.192      0.00      0.00     0.000 30.000
Tb   c O    s Buckingham    0.148E+04 0.266      0.00      0.00     0.000 30.000
O    s O    s Buckingham     912.     0.271      13.8      0.00     0.000 30.000
Ba   c O    s Buckingham    0.352E+04 0.267      0.00      0.00     0.000 30.000
O    c O    s Spring (c-s)   26.8      0.00      0.00      0.00     0.000  0.800
--------------------------------------------------------------------------------

********************************************************************************
*  Output for configuration   1                                                *
********************************************************************************


  Components of energy : 

--------------------------------------------------------------------------------
  Interatomic potentials     =           6.37890675 eV
  Monopole - monopole (real) =         -26.69838469 eV
  Monopole - monopole (recip)=         -57.09243462 eV
  Monopole - monopole (total)=         -83.79081932 eV
--------------------------------------------------------------------------------
  Total lattice energy : 
    Primitive unit cell      =         -77.41191257 eV
    Non-primitive unit cell  =        -232.23573770 eV
--------------------------------------------------------------------------------
  Total lattice energy (in kJmol-1): 
    Primitive unit cell      =           -7469.0662 kJ/(mole unit cells)
    Non-primitive unit cell  =          -22407.1986 kJ/(mole unit cells)
--------------------------------------------------------------------------------


  Number of variables =        2

  Maximum number of calculations  =          1000
  Maximum Hessian update interval =            10
  Maximum step size               =   1.000000000
  Maximum parameter tolerance     =   0.000010000
  Maximum function  tolerance     =   0.000010000
  Maximum gradient  tolerance     =   0.001000000
  Maximum gradient  component     =   0.010000000

  Symmetry constrained optimisation

  Symmetry used for second derivatives

  Cell parameters to be optimised using strains

  Newton-Raphson optimiser to be used

  BFGS hessian update to be used

  Start of bulk optimisation :

  Cycle:      0 Energy:       -77.411913  Gnorm:     10.075585  CPU:    0.017
  ** Hessian calculated **
  Cycle:      1 Energy:       -78.198561  Gnorm:      2.017046  CPU:    0.034
  Cycle:      2 Energy:       -78.220553  Gnorm:      0.512906  CPU:    0.051
  Cycle:      3 Energy:       -78.222169  Gnorm:      0.001807  CPU:    0.068


  **** Optimisation achieved ****


  Final energy =     -78.22216876 eV
  Final Gnorm  =       0.00001722

  Components of energy : 

--------------------------------------------------------------------------------
  Interatomic potentials     =          10.43498879 eV
  Monopole - monopole (real) =         -28.25288602 eV
  Monopole - monopole (recip)=         -60.40427154 eV
  Monopole - monopole (total)=         -88.65715756 eV
--------------------------------------------------------------------------------
  Total lattice energy : 
    Primitive unit cell      =         -78.22216876 eV
    Non-primitive unit cell  =        -234.66650629 eV
--------------------------------------------------------------------------------
  Total lattice energy (in kJmol-1): 
    Primitive unit cell      =           -7547.2436 kJ/(mole unit cells)
    Non-primitive unit cell  =          -22641.7307 kJ/(mole unit cells)
--------------------------------------------------------------------------------

  Final asymmetric unit coordinates :

--------------------------------------------------------------------------------
   No.  Atomic        x           y           z         Radius
        Label       (Frac)      (Frac)      (Frac)       (Angs) 
--------------------------------------------------------------------------------
     1  Tb    c     0.000000    0.000000    0.000000    0.000000
     2  Ba    c     0.000000    0.000000    0.250000    0.000000
     3  O     c     0.462400    0.000000    0.250000    0.000000
     4  O     s     0.462400    0.000000    0.250000    0.000000
--------------------------------------------------------------------------------

  Final Cartesian lattice vectors (Angstroms) :

        2.869026    1.656433    4.666486
       -2.869026    1.656433    4.666486
        0.000000   -3.312865    4.666486


  Final cell parameters and derivatives :

--------------------------------------------------------------------------------
       a            5.722864 Angstrom     dE/de1(xx)    -0.000028 eV/strain
       b            5.722864 Angstrom     dE/de2(yy)     0.000000 eV/strain
       c            5.722864 Angstrom     dE/de3(zz)    -0.000020 eV/strain
       alpha       60.175657 Degrees      dE/de4(yz)     0.000000 eV/strain
       beta        60.175657 Degrees      dE/de5(xz)     0.000000 eV/strain
       gamma       60.175657 Degrees      dE/de6(xy)     0.000000 eV/strain
--------------------------------------------------------------------------------

  Primitive cell volume =           133.060587 Angs**3

  Density of cell =      8.592571 g/cm**3

  Non-primitive lattice parameters :

  a    =     5.738051  b   =     5.738051  c    =    13.999457
  alpha=    90.000000  beta=    90.000000  gamma=   120.000000

  Non-primitive cell volume =           399.181760 Angs**3


  Final internal derivatives :

--------------------------------------------------------------------------------
   No.  Atomic          a             b             c           Radius
        Label          (eV)          (eV)          (eV)        (eV/Angs)
--------------------------------------------------------------------------------
      1 Tb    c       0.000000      0.000000      0.000000      0.000000
      2 Ba    c       0.000000      0.000000      0.000000      0.000000
      3 O     c       0.000000      0.000000      0.000000      0.000000
      4 O     s       0.000000      0.000000      0.000000      0.000000
--------------------------------------------------------------------------------
  Maximum abs         0.000000      0.000000      0.000000      0.000000
--------------------------------------------------------------------------------


  Born effective charge tensors : 

-------------------------------------------------------------------------------
  Atom             x           y             z
-------------------------------------------------------------------------------
   1 Tb    x       0.9248     -0.0009      0.0000
           y       0.0009      0.9248      0.0000
           z       0.0000      0.0000      0.9275
-------------------------------------------------------------------------------
   2 Ba    x       1.9737      0.0000      0.0000
           y       0.0000      1.9737      0.0000
           z       0.0000      0.0000      2.0112
-------------------------------------------------------------------------------
   3 O     x      -1.0578      0.0000      0.0000
           y       0.0000     -0.8746      0.1479
           z       0.0000      0.1482     -0.9796
-------------------------------------------------------------------------------




  Elastic Constant Matrix: (Units=GPa)

-------------------------------------------------------------------------------
  Indices      1         2         3         4         5         6    
-------------------------------------------------------------------------------
       1    114.4302   68.7032   56.4121   -7.7683    0.0000    0.0000
       2     68.7032  114.4302   56.4121    7.7683    0.0000    0.0000
       3     56.4121   56.4121  112.9737    0.0000    0.0000    0.0000
       4     -7.7683    7.7683    0.0000   49.8699    0.0000    0.0000
       5      0.0000    0.0000    0.0000    0.0000   49.8699   -7.7683
       6      0.0000    0.0000    0.0000    0.0000   -7.7683   22.8635
-------------------------------------------------------------------------------


  Elastic Compliance Matrix: (Units=1/GPa)

-------------------------------------------------------------------------------
  Indices      1         2         3         4         5         6    
-------------------------------------------------------------------------------
       1    0.015489 -0.007602 -0.003938  0.003597  0.000000  0.000000
       2   -0.007602  0.015489 -0.003938 -0.003597  0.000000  0.000000
       3   -0.003938 -0.003938  0.012785  0.000000  0.000000  0.000000
       4    0.003597 -0.003597  0.000000  0.021173  0.000000  0.000000
       5    0.000000  0.000000  0.000000  0.000000  0.021173  0.007194
       6    0.000000  0.000000  0.000000  0.000000  0.007194  0.046182
-------------------------------------------------------------------------------

  Mechanical properties :

-------------------------------------------------------------------------------
  Convention :                    Reuss         Voigt         Hill
-------------------------------------------------------------------------------
  Bulk  Modulus (GPa)     =      78.09205      78.32101      78.20653
  Shear Modulus (GPa)     =      29.84803      35.20779      32.52791
-------------------------------------------------------------------------------
  Velocity S-wave (km/s)  =       1.86379       2.02422       1.94566
  Velocity P-wave (km/s)  =       3.70404       3.81815       3.76153
-------------------------------------------------------------------------------
  Compressibility (1/GPa) =    0.01280540
-------------------------------------------------------------------------------
  Stress axis :                     x             y             z
-------------------------------------------------------------------------------
  Youngs Moduli (GPa)     =      64.56249      64.56249      78.21948
-------------------------------------------------------------------------------
  Poissons Ratio (x)      =                     0.49082       0.30804
  Poissons Ratio (y)      =       0.49082                     0.30804
  Poissons Ratio (z)      =       0.25426       0.25426
-------------------------------------------------------------------------------


  Piezoelectric Strain Matrix: (Units=C/m**2)

-------------------------------------------------------------------------------
  Indices      1         2         3         4         5         6    
-------------------------------------------------------------------------------
       x     0.00000   0.00000   0.00000   0.00000   0.00000   0.00000
       y     0.00000   0.00000   0.00000   0.00000   0.00000   0.00000
       z     0.00000   0.00000   0.00000   0.00000   0.00000   0.00000
-------------------------------------------------------------------------------


  Piezoelectric Stress Matrix: (Units=10**-11 C/N)

-------------------------------------------------------------------------------
  Indices      1         2         3         4         5         6    
-------------------------------------------------------------------------------
       x     0.00000   0.00000   0.00000   0.00000   0.00000   0.00000
       y     0.00000   0.00000   0.00000   0.00000   0.00000   0.00000
       z     0.00000   0.00000   0.00000   0.00000   0.00000   0.00000
-------------------------------------------------------------------------------


  Static dielectric constant tensor : 

-------------------------------------------------------------------------------
              x         y         z
-------------------------------------------------------------------------------
       x    62.92410   0.00000   0.00000
       y     0.00000  62.92410   0.00000
       z     0.00000   0.00000 -11.36712
--------------------------------------------------------------------------------

  High frequency dielectric constant tensor : 

-------------------------------------------------------------------------------
              x         y         z
-------------------------------------------------------------------------------
       x     1.62553   0.00000   0.00000
       y     0.00000   1.62553   0.00000
       z     0.00000   0.00000   1.63254
-------------------------------------------------------------------------------

  Static refractive indices : 

-------------------------------------------------------------------------------
    1 =   -3.37152      2 =    7.93247      3 =    7.93247
-------------------------------------------------------------------------------

  High frequency refractive indices : 

-------------------------------------------------------------------------------
    1 =    1.27496      2 =    1.27496      3 =    1.27771
-------------------------------------------------------------------------------


  Time to end of optimisation =       0.1137 seconds


  Peak dynamic memory used =       0.57 MB 


  Timing analysis for GULP :

--------------------------------------------------------------------------------
  Task / Subroutine                                          Time (Seconds)
--------------------------------------------------------------------------------
  Calculation of reciprocal space energy and derivatives          0.0009
  Calculation of reciprocal space energy using symmetry           0.0017
  Calculation of real space energy and derivatives                0.0272
  Calculation of real space energy using symmetry                 0.0804
  Symmetry generation of equivalent positions                     0.0003
--------------------------------------------------------------------------------
  Total CPU time                                                  0.1138
--------------------------------------------------------------------------------


  CIF file written as perov.cif                                               


  Job Finished at 09:30.43  6th April      2017                               

