********************************************************************************
*                       GENERAL UTILITY LATTICE PROGRAM                        *
*                                 Julian Gale                                  *
*                      Nanochemistry Research Institute                        *
*                           Department of Chemistry                            *
*                    Curtin University, Western Australia                      *
********************************************************************************
* Version = 4.3.2 * Last modified =  3rd March 2015                            *
********************************************************************************
*  optimise     - perform optimisation run                                     *
*  cell_only    - only optimise unit cell                                      *
*  property     - calculate properties for final geometry                      *
********************************************************************************

  Job Started  at 09:30.39  6th April      2017                               

  Number of CPUs =     1


  Total number of configurations input =   1

********************************************************************************
*  Input for Configuration =   1                                               *
********************************************************************************

  Formula = Tb2Ba2O6                                                    

  Number of irreducible atoms/shells =       4


  Total number atoms/shells =      16

  Dimensionality = 3               :  Bulk   


  Symmetry :

  Crystal family                   :  Hexagonal   
  Crystal class  (Groth - 1921)    :  Ditrigonal Scalenohedral             

  Space group (centrosymmetric)    :  R -3 C          

  Patterson group                  :  R -3 m   

  Cartesian lattice vectors (Angstroms) :

        3.039900    1.755087    4.922700
       -3.039900    1.755087    4.922700
        0.000000   -3.510174    4.922700

  Primitive cell parameters :            Full cell parameters :

  a =   6.0460    alpha =  60.3700       a =   6.0798    alpha =  90.0000
  b =   6.0460    beta  =  60.3700       b =   6.0798    beta  =  90.0000
  c =   6.0460    gamma =  60.3700       c =  14.7681    gamma = 120.0000

  Initial volumes (Angstroms**3):

  Primitive cell =         157.584170    Full cell =         472.752509

  Temperature of configuration =  0.000     K 

  Pressure of configuration =         0.000 GPa 

  Fractional coordinates of asymmetric unit :

--------------------------------------------------------------------------------
   No.  Atomic       x           y          z         Charge      Occupancy
        Label      (Frac)      (Frac)     (Frac)        (e)         (Frac)  
--------------------------------------------------------------------------------
      1 Tb    c    0.000000    0.000000    0.000000     1.10000    1.000000    
      2 Ba    c    0.000000    0.000000    0.250000     2.00000    1.000000    
      3 O     c    0.462400    0.000000    0.250000     0.37800    1.000000    
      4 O     s    0.462400    0.000000    0.250000    -1.41133    1.000000    
--------------------------------------------------------------------------------


  Constraints : 

--------------------------------------------------------------------------------
  Constraint no.      Unconstrained     Constrained    Coefficient    Offset
                         Variable         Variable
--------------------------------------------------------------------------------
           1              Strain 1        Strain 2       1.00000      0.0000
--------------------------------------------------------------------------------


********************************************************************************
*  General input information                                                   *
********************************************************************************

  Species output for all configurations : 

--------------------------------------------------------------------------------
  Species    Type    Atomic    Atomic    Charge       Radii (Angs)     Library
                     Number     Mass       (e)     Cova   Ionic  VDW   Symbol
--------------------------------------------------------------------------------
    Tb       Core       65     158.93   1.100000   1.760  0.000  2.630          
    Ba       Core       56     137.33   2.000000   1.340  0.000  2.000          
    O        Core        8      16.00   0.378000   0.730  0.000  1.360          
    O        Shell       8       0.00  -1.411333   0.730  0.000  1.360          
--------------------------------------------------------------------------------


  Lattice summation method               =    Ewald          (3-D)
                                         =    Parry          (2-D)
                                         =    Saunders et al (1-D)
  Accuracy factor for lattice sums       =   12.000


  Time limit = Infinity

  Maximum range for interatomic potentials =    100000.000000 Angstroms

  General interatomic potentials :

--------------------------------------------------------------------------------
Atom  Types   Potential         A         B         C         D     Cutoffs(Ang)
  1     2                                                            Min    Max 
--------------------------------------------------------------------------------
Ba   c Ba   c Buckingham    0.219E+04 0.192      0.00      0.00     0.000 30.000
Tb   c O    s Buckingham    0.148E+04 0.266      0.00      0.00     0.000 30.000
O    s O    s Buckingham     912.     0.271      13.8      0.00     0.000 30.000
Ba   c O    s Buckingham    0.352E+04 0.267      0.00      0.00     0.000 30.000
O    c O    s Spring (c-s)   25.5      0.00      0.00      0.00     0.000  0.800
--------------------------------------------------------------------------------

********************************************************************************
*  Output for configuration   1                                                *
********************************************************************************


  Components of energy : 

--------------------------------------------------------------------------------
  Interatomic potentials     =           6.37890675 eV
  Monopole - monopole (real) =         -23.10385266 eV
  Monopole - monopole (recip)=         -55.33661740 eV
  Monopole - monopole (total)=         -78.44047006 eV
--------------------------------------------------------------------------------
  Total lattice energy : 
    Primitive unit cell      =         -72.06156331 eV
    Non-primitive unit cell  =        -216.18468993 eV
--------------------------------------------------------------------------------
  Total lattice energy (in kJmol-1): 
    Primitive unit cell      =           -6952.8393 kJ/(mole unit cells)
    Non-primitive unit cell  =          -20858.5179 kJ/(mole unit cells)
--------------------------------------------------------------------------------


  Number of variables =        2

  Maximum number of calculations  =          1000
  Maximum Hessian update interval =            10
  Maximum step size               =   1.000000000
  Maximum parameter tolerance     =   0.000010000
  Maximum function  tolerance     =   0.000010000
  Maximum gradient  tolerance     =   0.001000000
  Maximum gradient  component     =   0.010000000

  Symmetry constrained optimisation

  Symmetry used for second derivatives

  Cell parameters to be optimised using strains

  Newton-Raphson optimiser to be used

  BFGS hessian update to be used

  Start of bulk optimisation :

  Cycle:      0 Energy:       -72.061563  Gnorm:      8.050637  CPU:    0.013
  ** Hessian calculated **
  Cycle:      1 Energy:       -72.578200  Gnorm:      1.300221  CPU:    0.030
  Cycle:      2 Energy:       -72.588314  Gnorm:      0.274630  CPU:    0.047
  Cycle:      3 Energy:       -72.588807  Gnorm:      0.000179  CPU:    0.064


  **** Optimisation achieved ****


  Final energy =     -72.58880680 eV
  Final Gnorm  =       0.00000138

  Components of energy : 

--------------------------------------------------------------------------------
  Interatomic potentials     =           9.58544681 eV
  Monopole - monopole (real) =         -24.20747963 eV
  Monopole - monopole (recip)=         -57.96677399 eV
  Monopole - monopole (total)=         -82.17425361 eV
--------------------------------------------------------------------------------
  Total lattice energy : 
    Primitive unit cell      =         -72.58880680 eV
    Non-primitive unit cell  =        -217.76642041 eV
--------------------------------------------------------------------------------
  Total lattice energy (in kJmol-1): 
    Primitive unit cell      =           -7003.7102 kJ/(mole unit cells)
    Non-primitive unit cell  =          -21011.1307 kJ/(mole unit cells)
--------------------------------------------------------------------------------

  Final asymmetric unit coordinates :

--------------------------------------------------------------------------------
   No.  Atomic        x           y           z         Radius
        Label       (Frac)      (Frac)      (Frac)       (Angs) 
--------------------------------------------------------------------------------
     1  Tb    c     0.000000    0.000000    0.000000    0.000000
     2  Ba    c     0.000000    0.000000    0.250000    0.000000
     3  O     c     0.462400    0.000000    0.250000    0.000000
     4  O     s     0.462400    0.000000    0.250000    0.000000
--------------------------------------------------------------------------------

  Final Cartesian lattice vectors (Angstroms) :

        2.897594    1.672926    4.713575
       -2.897594    1.672926    4.713575
        0.000000   -3.345853    4.713575


  Final cell parameters and derivatives :

--------------------------------------------------------------------------------
       a            5.780357 Angstrom     dE/de1(xx)     0.000001 eV/strain
       b            5.780357 Angstrom     dE/de2(yy)     0.000000 eV/strain
       c            5.780357 Angstrom     dE/de3(zz)    -0.000003 eV/strain
       alpha       60.169815 Degrees      dE/de4(yz)     0.000000 eV/strain
       beta        60.169815 Degrees      dE/de5(xz)     0.000000 eV/strain
       gamma       60.169815 Degrees      dE/de6(xy)     0.000000 eV/strain
--------------------------------------------------------------------------------

  Primitive cell volume =           137.093226 Angs**3

  Density of cell =      8.339818 g/cm**3

  Non-primitive lattice parameters :

  a    =     5.795187  b   =     5.795187  c    =    14.140726
  alpha=    90.000000  beta=    90.000000  gamma=   120.000000

  Non-primitive cell volume =           411.279678 Angs**3


  Final internal derivatives :

--------------------------------------------------------------------------------
   No.  Atomic          a             b             c           Radius
        Label          (eV)          (eV)          (eV)        (eV/Angs)
--------------------------------------------------------------------------------
      1 Tb    c       0.000000      0.000000      0.000000      0.000000
      2 Ba    c       0.000000      0.000000      0.000000      0.000000
      3 O     c       0.000000      0.000000      0.000000      0.000000
      4 O     s       0.000000      0.000000      0.000000      0.000000
--------------------------------------------------------------------------------
  Maximum abs         0.000000      0.000000      0.000000      0.000000
--------------------------------------------------------------------------------


  Born effective charge tensors : 

-------------------------------------------------------------------------------
  Atom             x           y             z
-------------------------------------------------------------------------------
   1 Tb    x       0.6251     -0.0083      0.0000
           y       0.0083      0.6251      0.0000
           z       0.0000      0.0000      0.6334
-------------------------------------------------------------------------------
   2 Ba    x       2.2491      0.0000      0.0000
           y       0.0000      2.2491      0.0000
           z       0.0000      0.0000      2.2816
-------------------------------------------------------------------------------
   3 O     x      -1.0978      0.0000      0.0000
           y       0.0000     -0.8183      0.2152
           z       0.0000      0.2167     -0.9717
-------------------------------------------------------------------------------




  Elastic Constant Matrix: (Units=GPa)

-------------------------------------------------------------------------------
  Indices      1         2         3         4         5         6    
-------------------------------------------------------------------------------
       1    126.4783   32.9969   58.6250  -35.4768    0.0000    0.0000
       2     32.9969  126.4783   58.6250   35.4768    0.0000    0.0000
       3     58.6250   58.6250   88.0033    0.0000    0.0000    0.0000
       4    -35.4768   35.4768    0.0000   61.9647    0.0000    0.0000
       5      0.0000    0.0000    0.0000    0.0000   61.9647  -35.4768
       6      0.0000    0.0000    0.0000    0.0000  -35.4768   46.7407
-------------------------------------------------------------------------------


  Elastic Compliance Matrix: (Units=1/GPa)

-------------------------------------------------------------------------------
  Indices      1         2         3         4         5         6    
-------------------------------------------------------------------------------
       1    0.015604 -0.003314 -0.008187  0.010831  0.000000  0.000000
       2   -0.003314  0.015604 -0.008187 -0.010831  0.000000  0.000000
       3   -0.008187 -0.008187  0.022271  0.000000  0.000000  0.000000
       4    0.010831 -0.010831  0.000000  0.028541  0.000000  0.000000
       5    0.000000  0.000000  0.000000  0.000000  0.028541  0.021663
       6    0.000000  0.000000  0.000000  0.000000  0.021663  0.037837
-------------------------------------------------------------------------------

  Mechanical properties :

-------------------------------------------------------------------------------
  Convention :                    Reuss         Voigt         Hill
-------------------------------------------------------------------------------
  Bulk  Modulus (GPa)     =      70.90942      71.27262      71.09102
  Shear Modulus (GPa)     =      25.97711      46.84821      36.41266
-------------------------------------------------------------------------------
  Velocity S-wave (km/s)  =       1.76489       2.37011       2.08953
  Velocity P-wave (km/s)  =       3.55747       4.00449       3.78758
-------------------------------------------------------------------------------
  Compressibility (1/GPa) =    0.01410250
-------------------------------------------------------------------------------
  Stress axis :                     x             y             z
-------------------------------------------------------------------------------
  Youngs Moduli (GPa)     =      64.08500      64.08500      44.90079
-------------------------------------------------------------------------------
  Poissons Ratio (x)      =                     0.21240       0.36761
  Poissons Ratio (y)      =       0.21240                     0.36761
  Poissons Ratio (z)      =       0.52468       0.52468
-------------------------------------------------------------------------------


  Piezoelectric Strain Matrix: (Units=C/m**2)

-------------------------------------------------------------------------------
  Indices      1         2         3         4         5         6    
-------------------------------------------------------------------------------
       x     0.00000   0.00000   0.00000   0.00000   0.00000   0.00000
       y     0.00000   0.00000   0.00000   0.00000   0.00000   0.00000
       z     0.00000   0.00000   0.00000   0.00000   0.00000   0.00000
-------------------------------------------------------------------------------


  Piezoelectric Stress Matrix: (Units=10**-11 C/N)

-------------------------------------------------------------------------------
  Indices      1         2         3         4         5         6    
-------------------------------------------------------------------------------
       x     0.00000   0.00000   0.00000   0.00000   0.00000   0.00000
       y     0.00000   0.00000   0.00000   0.00000   0.00000   0.00000
       z     0.00000   0.00000   0.00000   0.00000   0.00000   0.00000
-------------------------------------------------------------------------------


  Static dielectric constant tensor : 

-------------------------------------------------------------------------------
              x         y         z
-------------------------------------------------------------------------------
       x    -8.75887   0.00000   0.00000
       y     0.00000  -8.75887   0.00000
       z     0.00000   0.00000  -4.85842
--------------------------------------------------------------------------------

  High frequency dielectric constant tensor : 

-------------------------------------------------------------------------------
              x         y         z
-------------------------------------------------------------------------------
       x     1.61673   0.00000   0.00000
       y     0.00000   1.61673   0.00000
       z     0.00000   0.00000   1.62373
-------------------------------------------------------------------------------

  Static refractive indices : 

-------------------------------------------------------------------------------
    1 =   -2.95954      2 =   -2.95954      3 =   -2.20418
-------------------------------------------------------------------------------

  High frequency refractive indices : 

-------------------------------------------------------------------------------
    1 =    1.27151      2 =    1.27151      3 =    1.27426
-------------------------------------------------------------------------------


  Time to end of optimisation =       0.1086 seconds


  Peak dynamic memory used =       0.57 MB 


  Timing analysis for GULP :

--------------------------------------------------------------------------------
  Task / Subroutine                                          Time (Seconds)
--------------------------------------------------------------------------------
  Calculation of reciprocal space energy and derivatives          0.0009
  Calculation of reciprocal space energy using symmetry           0.0015
  Calculation of real space energy and derivatives                0.0265
  Calculation of real space energy using symmetry                 0.0760
  Symmetry generation of equivalent positions                     0.0003
--------------------------------------------------------------------------------
  Total CPU time                                                  0.1087
--------------------------------------------------------------------------------


  CIF file written as perov.cif                                               


  Job Finished at 09:30.39  6th April      2017                               

