********************************************************************************
*                       GENERAL UTILITY LATTICE PROGRAM                        *
*                                 Julian Gale                                  *
*                      Nanochemistry Research Institute                        *
*                           Department of Chemistry                            *
*                    Curtin University, Western Australia                      *
********************************************************************************
* Version = 4.3.2 * Last modified =  3rd March 2015                            *
********************************************************************************
*  optimise     - perform optimisation run                                     *
*  cell_only    - only optimise unit cell                                      *
*  property     - calculate properties for final geometry                      *
********************************************************************************

  Job Started  at 09:30.36  6th April      2017                               

  Number of CPUs =     1


  Total number of configurations input =   1

********************************************************************************
*  Input for Configuration =   1                                               *
********************************************************************************

  Formula = Tb2Ba2O6                                                    

  Number of irreducible atoms/shells =       4


  Total number atoms/shells =      16

  Dimensionality = 3               :  Bulk   


  Symmetry :

  Crystal family                   :  Hexagonal   
  Crystal class  (Groth - 1921)    :  Ditrigonal Scalenohedral             

  Space group (centrosymmetric)    :  R -3 C          

  Patterson group                  :  R -3 m   

  Cartesian lattice vectors (Angstroms) :

        3.039900    1.755087    4.922700
       -3.039900    1.755087    4.922700
        0.000000   -3.510174    4.922700

  Primitive cell parameters :            Full cell parameters :

  a =   6.0460    alpha =  60.3700       a =   6.0798    alpha =  90.0000
  b =   6.0460    beta  =  60.3700       b =   6.0798    beta  =  90.0000
  c =   6.0460    gamma =  60.3700       c =  14.7681    gamma = 120.0000

  Initial volumes (Angstroms**3):

  Primitive cell =         157.584170    Full cell =         472.752509

  Temperature of configuration =  0.000     K 

  Pressure of configuration =         0.000 GPa 

  Fractional coordinates of asymmetric unit :

--------------------------------------------------------------------------------
   No.  Atomic       x           y          z         Charge      Occupancy
        Label      (Frac)      (Frac)     (Frac)        (e)         (Frac)  
--------------------------------------------------------------------------------
      1 Tb    c    0.000000    0.000000    0.000000     0.90000    1.000000    
      2 Ba    c    0.000000    0.000000    0.250000     1.70000    1.000000    
      3 O     c    0.462400    0.000000    0.250000     0.37800    1.000000    
      4 O     s    0.462400    0.000000    0.250000    -1.24467    1.000000    
--------------------------------------------------------------------------------


  Constraints : 

--------------------------------------------------------------------------------
  Constraint no.      Unconstrained     Constrained    Coefficient    Offset
                         Variable         Variable
--------------------------------------------------------------------------------
           1              Strain 1        Strain 2       1.00000      0.0000
--------------------------------------------------------------------------------


********************************************************************************
*  General input information                                                   *
********************************************************************************

  Species output for all configurations : 

--------------------------------------------------------------------------------
  Species    Type    Atomic    Atomic    Charge       Radii (Angs)     Library
                     Number     Mass       (e)     Cova   Ionic  VDW   Symbol
--------------------------------------------------------------------------------
    Tb       Core       65     158.93   0.900000   1.760  0.000  2.630          
    Ba       Core       56     137.33   1.700000   1.340  0.000  2.000          
    O        Core        8      16.00   0.378000   0.730  0.000  1.360          
    O        Shell       8       0.00  -1.244667   0.730  0.000  1.360          
--------------------------------------------------------------------------------


  Lattice summation method               =    Ewald          (3-D)
                                         =    Parry          (2-D)
                                         =    Saunders et al (1-D)
  Accuracy factor for lattice sums       =   12.000


  Time limit = Infinity

  Maximum range for interatomic potentials =    100000.000000 Angstroms

  General interatomic potentials :

--------------------------------------------------------------------------------
Atom  Types   Potential         A         B         C         D     Cutoffs(Ang)
  1     2                                                            Min    Max 
--------------------------------------------------------------------------------
Ba   c Ba   c Buckingham    0.219E+04 0.192      0.00      0.00     0.000 30.000
Tb   c O    s Buckingham    0.148E+04 0.266      0.00      0.00     0.000 30.000
O    s O    s Buckingham     912.     0.271      13.8      0.00     0.000 30.000
Ba   c O    s Buckingham    0.352E+04 0.267      0.00      0.00     0.000 30.000
O    c O    s Spring (c-s)   19.9      0.00      0.00      0.00     0.000  0.800
--------------------------------------------------------------------------------

********************************************************************************
*  Output for configuration   1                                                *
********************************************************************************


  Components of energy : 

--------------------------------------------------------------------------------
  Interatomic potentials     =           6.37890675 eV
  Monopole - monopole (real) =         -16.11499828 eV
  Monopole - monopole (recip)=         -39.12158871 eV
  Monopole - monopole (total)=         -55.23658699 eV
--------------------------------------------------------------------------------
  Total lattice energy : 
    Primitive unit cell      =         -48.85768024 eV
    Non-primitive unit cell  =        -146.57304071 eV
--------------------------------------------------------------------------------
  Total lattice energy (in kJmol-1): 
    Primitive unit cell      =           -4714.0193 kJ/(mole unit cells)
    Non-primitive unit cell  =          -14142.0579 kJ/(mole unit cells)
--------------------------------------------------------------------------------


  Number of variables =        2

  Maximum number of calculations  =          1000
  Maximum Hessian update interval =            10
  Maximum step size               =   1.000000000
  Maximum parameter tolerance     =   0.000010000
  Maximum function  tolerance     =   0.000010000
  Maximum gradient  tolerance     =   0.001000000
  Maximum gradient  component     =   0.010000000

  Symmetry constrained optimisation

  Symmetry used for second derivatives

  Cell parameters to be optimised using strains

  Newton-Raphson optimiser to be used

  BFGS hessian update to be used

  Start of bulk optimisation :

  Cycle:      0 Energy:       -48.857680  Gnorm:      0.685115  CPU:    0.013
  ** Hessian calculated **
  Cycle:      1 Energy:       -48.862017  Gnorm:      0.002952  CPU:    0.032


  **** Optimisation achieved ****


  Final energy =     -48.86201681 eV
  Final Gnorm  =       0.00000017

  Components of energy : 

--------------------------------------------------------------------------------
  Interatomic potentials     =           6.11729729 eV
  Monopole - monopole (real) =         -16.04188905 eV
  Monopole - monopole (recip)=         -38.93742506 eV
  Monopole - monopole (total)=         -54.97931410 eV
--------------------------------------------------------------------------------
  Total lattice energy : 
    Primitive unit cell      =         -48.86201681 eV
    Non-primitive unit cell  =        -146.58605044 eV
--------------------------------------------------------------------------------
  Total lattice energy (in kJmol-1): 
    Primitive unit cell      =           -4714.4377 kJ/(mole unit cells)
    Non-primitive unit cell  =          -14143.3131 kJ/(mole unit cells)
--------------------------------------------------------------------------------

  Final asymmetric unit coordinates :

--------------------------------------------------------------------------------
   No.  Atomic        x           y           z         Radius
        Label       (Frac)      (Frac)      (Frac)       (Angs) 
--------------------------------------------------------------------------------
     1  Tb    c     0.000000    0.000000    0.000000    0.000000
     2  Ba    c     0.000000    0.000000    0.250000    0.000000
     3  O     c     0.462400    0.000000    0.250000    0.000000
     4  O     s     0.462400    0.000000    0.250000    0.000000
--------------------------------------------------------------------------------

  Final Cartesian lattice vectors (Angstroms) :

        3.050867    1.761419    4.957071
       -3.050867    1.761419    4.957071
        0.000000   -3.522838    4.957071


  Final cell parameters and derivatives :

--------------------------------------------------------------------------------
       a            6.081360 Angstrom     dE/de1(xx)     0.000000 eV/strain
       b            6.081360 Angstrom     dE/de2(yy)     0.000000 eV/strain
       c            6.081360 Angstrom     dE/de3(zz)     0.000000 eV/strain
       alpha       60.221776 Degrees      dE/de4(yz)     0.000000 eV/strain
       beta        60.221776 Degrees      dE/de5(xz)     0.000000 eV/strain
       gamma       60.221776 Degrees      dE/de6(xy)     0.000000 eV/strain
--------------------------------------------------------------------------------

  Primitive cell volume =           159.831524 Angs**3

  Density of cell =      7.153361 g/cm**3

  Non-primitive lattice parameters :

  a    =     6.101735  b   =     6.101735  c    =    14.871214
  alpha=    90.000000  beta=    90.000000  gamma=   120.000000

  Non-primitive cell volume =           479.494572 Angs**3


  Final internal derivatives :

--------------------------------------------------------------------------------
   No.  Atomic          a             b             c           Radius
        Label          (eV)          (eV)          (eV)        (eV/Angs)
--------------------------------------------------------------------------------
      1 Tb    c       0.000000      0.000000      0.000000      0.000000
      2 Ba    c       0.000000      0.000000      0.000000      0.000000
      3 O     c       0.000000      0.000000      0.000000      0.000000
      4 O     s       0.000000      0.000000      0.000000      0.000000
--------------------------------------------------------------------------------
  Maximum abs         0.000000      0.000000      0.000000      0.000000
--------------------------------------------------------------------------------


  Born effective charge tensors : 

-------------------------------------------------------------------------------
  Atom             x           y             z
-------------------------------------------------------------------------------
   1 Tb    x       0.5220     -0.0075      0.0000
           y       0.0075      0.5220      0.0000
           z       0.0000      0.0000      0.5302
-------------------------------------------------------------------------------
   2 Ba    x       1.8978      0.0000      0.0000
           y       0.0000      1.8978      0.0000
           z       0.0000      0.0000      1.9198
-------------------------------------------------------------------------------
   3 O     x      -0.9282      0.0000      0.0000
           y       0.0000     -0.6850      0.1845
           z       0.0000      0.1860     -0.8167
-------------------------------------------------------------------------------




  Elastic Constant Matrix: (Units=GPa)

-------------------------------------------------------------------------------
  Indices      1         2         3         4         5         6    
-------------------------------------------------------------------------------
       1     74.4917   20.9645   37.1370  -23.4828    0.0000    0.0000
       2     20.9645   74.4917   37.1370   23.4828    0.0000    0.0000
       3     37.1370   37.1370   50.3018    0.0000    0.0000    0.0000
       4    -23.4828   23.4828    0.0000   38.6316    0.0000    0.0000
       5      0.0000    0.0000    0.0000    0.0000   38.6316  -23.4828
       6      0.0000    0.0000    0.0000    0.0000  -23.4828   26.7636
-------------------------------------------------------------------------------


  Elastic Compliance Matrix: (Units=1/GPa)

-------------------------------------------------------------------------------
  Indices      1         2         3         4         5         6    
-------------------------------------------------------------------------------
       1    0.032326 -0.007708 -0.018175  0.024336  0.000000  0.000000
       2   -0.007708  0.032326 -0.018175 -0.024336  0.000000  0.000000
       3   -0.018175 -0.018175  0.046717  0.000000  0.000000  0.000000
       4    0.024336 -0.024336  0.000000  0.055471  0.000000  0.000000
       5    0.000000  0.000000  0.000000  0.000000  0.055471  0.048671
       6    0.000000  0.000000  0.000000  0.000000  0.048671  0.080069
-------------------------------------------------------------------------------

  Mechanical properties :

-------------------------------------------------------------------------------
  Convention :                    Reuss         Voigt         Hill
-------------------------------------------------------------------------------
  Bulk  Modulus (GPa)     =      43.00624      43.30689      43.15657
  Shear Modulus (GPa)     =      12.55500      27.74182      20.14841
-------------------------------------------------------------------------------
  Velocity S-wave (km/s)  =       1.32481       1.96930       1.67828
  Velocity P-wave (km/s)  =       2.89002       3.35036       3.12867
-------------------------------------------------------------------------------
  Compressibility (1/GPa) =    0.02325244
-------------------------------------------------------------------------------
  Stress axis :                     x             y             z
-------------------------------------------------------------------------------
  Youngs Moduli (GPa)     =      30.93464      30.93464      21.40569
-------------------------------------------------------------------------------
  Poissons Ratio (x)      =                     0.23846       0.38905
  Poissons Ratio (y)      =       0.23846                     0.38905
  Poissons Ratio (z)      =       0.56224       0.56224
-------------------------------------------------------------------------------


  Piezoelectric Strain Matrix: (Units=C/m**2)

-------------------------------------------------------------------------------
  Indices      1         2         3         4         5         6    
-------------------------------------------------------------------------------
       x     0.00000   0.00000   0.00000   0.00000   0.00000   0.00000
       y     0.00000   0.00000   0.00000   0.00000   0.00000   0.00000
       z     0.00000   0.00000   0.00000   0.00000   0.00000   0.00000
-------------------------------------------------------------------------------


  Piezoelectric Stress Matrix: (Units=10**-11 C/N)

-------------------------------------------------------------------------------
  Indices      1         2         3         4         5         6    
-------------------------------------------------------------------------------
       x     0.00000   0.00000   0.00000   0.00000   0.00000   0.00000
       y     0.00000   0.00000   0.00000   0.00000   0.00000   0.00000
       z     0.00000   0.00000   0.00000   0.00000   0.00000   0.00000
-------------------------------------------------------------------------------


  Static dielectric constant tensor : 

-------------------------------------------------------------------------------
              x         y         z
-------------------------------------------------------------------------------
       x    -6.64336   0.00000   0.00000
       y     0.00000  -6.64336   0.00000
       z     0.00000   0.00000  -3.95965
--------------------------------------------------------------------------------

  High frequency dielectric constant tensor : 

-------------------------------------------------------------------------------
              x         y         z
-------------------------------------------------------------------------------
       x     1.53107   0.00000   0.00000
       y     0.00000   1.53107   0.00000
       z     0.00000   0.00000   1.53625
-------------------------------------------------------------------------------

  Static refractive indices : 

-------------------------------------------------------------------------------
    1 =   -2.57747      2 =   -2.57747      3 =   -1.98989
-------------------------------------------------------------------------------

  High frequency refractive indices : 

-------------------------------------------------------------------------------
    1 =    1.23736      2 =    1.23736      3 =    1.23945
-------------------------------------------------------------------------------


  Time to end of optimisation =       0.0737 seconds


  Peak dynamic memory used =       0.57 MB 


  Timing analysis for GULP :

--------------------------------------------------------------------------------
  Task / Subroutine                                          Time (Seconds)
--------------------------------------------------------------------------------
  Calculation of reciprocal space energy and derivatives          0.0008
  Calculation of reciprocal space energy using symmetry           0.0009
  Calculation of real space energy and derivatives                0.0242
  Calculation of real space energy using symmetry                 0.0445
  Symmetry generation of equivalent positions                     0.0002
--------------------------------------------------------------------------------
  Total CPU time                                                  0.0737
--------------------------------------------------------------------------------


  CIF file written as perov.cif                                               


  Job Finished at 09:30.36  6th April      2017                               

