********************************************************************************
*                       GENERAL UTILITY LATTICE PROGRAM                        *
*                                 Julian Gale                                  *
*                      Nanochemistry Research Institute                        *
*                           Department of Chemistry                            *
*                    Curtin University, Western Australia                      *
********************************************************************************
* Version = 4.3.2 * Last modified =  3rd March 2015                            *
********************************************************************************
*  optimise     - perform optimisation run                                     *
*  cell_only    - only optimise unit cell                                      *
*  property     - calculate properties for final geometry                      *
********************************************************************************

  Job Started  at 09:30.27  6th April      2017                               

  Number of CPUs =     1


  Total number of configurations input =   1

********************************************************************************
*  Input for Configuration =   1                                               *
********************************************************************************

  Formula = Tb2Ba2O6                                                    

  Number of irreducible atoms/shells =       4


  Total number atoms/shells =      16

  Dimensionality = 3               :  Bulk   


  Symmetry :

  Crystal family                   :  Hexagonal   
  Crystal class  (Groth - 1921)    :  Ditrigonal Scalenohedral             

  Space group (centrosymmetric)    :  R -3 C          

  Patterson group                  :  R -3 m   

  Cartesian lattice vectors (Angstroms) :

        3.039900    1.755087    4.922700
       -3.039900    1.755087    4.922700
        0.000000   -3.510174    4.922700

  Primitive cell parameters :            Full cell parameters :

  a =   6.0460    alpha =  60.3700       a =   6.0798    alpha =  90.0000
  b =   6.0460    beta  =  60.3700       b =   6.0798    beta  =  90.0000
  c =   6.0460    gamma =  60.3700       c =  14.7681    gamma = 120.0000

  Initial volumes (Angstroms**3):

  Primitive cell =         157.584170    Full cell =         472.752509

  Temperature of configuration =  0.000     K 

  Pressure of configuration =         0.000 GPa 

  Fractional coordinates of asymmetric unit :

--------------------------------------------------------------------------------
   No.  Atomic       x           y          z         Charge      Occupancy
        Label      (Frac)      (Frac)     (Frac)        (e)         (Frac)  
--------------------------------------------------------------------------------
      1 Tb    c    0.000000    0.000000    0.000000     0.60000    1.000000    
      2 Ba    c    0.000000    0.000000    0.250000     1.50000    1.000000    
      3 O     c    0.462400    0.000000    0.250000     0.37800    1.000000    
      4 O     s    0.462400    0.000000    0.250000    -1.07800    1.000000    
--------------------------------------------------------------------------------


  Constraints : 

--------------------------------------------------------------------------------
  Constraint no.      Unconstrained     Constrained    Coefficient    Offset
                         Variable         Variable
--------------------------------------------------------------------------------
           1              Strain 1        Strain 2       1.00000      0.0000
--------------------------------------------------------------------------------


********************************************************************************
*  General input information                                                   *
********************************************************************************

  Species output for all configurations : 

--------------------------------------------------------------------------------
  Species    Type    Atomic    Atomic    Charge       Radii (Angs)     Library
                     Number     Mass       (e)     Cova   Ionic  VDW   Symbol
--------------------------------------------------------------------------------
    Tb       Core       65     158.93   0.600000   1.760  0.000  2.630          
    Ba       Core       56     137.33   1.500000   1.340  0.000  2.000          
    O        Core        8      16.00   0.378000   0.730  0.000  1.360          
    O        Shell       8       0.00  -1.078000   0.730  0.000  1.360          
--------------------------------------------------------------------------------


  Lattice summation method               =    Ewald          (3-D)
                                         =    Parry          (2-D)
                                         =    Saunders et al (1-D)
  Accuracy factor for lattice sums       =   12.000


  Time limit = Infinity

  Maximum range for interatomic potentials =    100000.000000 Angstroms

  General interatomic potentials :

--------------------------------------------------------------------------------
Atom  Types   Potential         A         B         C         D     Cutoffs(Ang)
  1     2                                                            Min    Max 
--------------------------------------------------------------------------------
Ba   c Ba   c Buckingham    0.219E+04 0.192      0.00      0.00     0.000 30.000
Tb   c O    s Buckingham    0.148E+04 0.266      0.00      0.00     0.000 30.000
O    s O    s Buckingham     912.     0.271      13.8      0.00     0.000 30.000
Ba   c O    s Buckingham    0.352E+04 0.267      0.00      0.00     0.000 30.000
O    c O    s Spring (c-s)   14.9      0.00      0.00      0.00     0.000  0.800
--------------------------------------------------------------------------------

********************************************************************************
*  Output for configuration   1                                                *
********************************************************************************


  Components of energy : 

--------------------------------------------------------------------------------
  Interatomic potentials     =           6.37890675 eV
  Monopole - monopole (real) =          -9.91558752 eV
  Monopole - monopole (recip)=         -26.63825642 eV
  Monopole - monopole (total)=         -36.55384393 eV
--------------------------------------------------------------------------------
  Total lattice energy : 
    Primitive unit cell      =         -30.17493718 eV
    Non-primitive unit cell  =         -90.52481155 eV
--------------------------------------------------------------------------------
  Total lattice energy (in kJmol-1): 
    Primitive unit cell      =           -2911.4202 kJ/(mole unit cells)
    Non-primitive unit cell  =           -8734.2605 kJ/(mole unit cells)
--------------------------------------------------------------------------------


  Number of variables =        2

  Maximum number of calculations  =          1000
  Maximum Hessian update interval =            10
  Maximum step size               =   1.000000000
  Maximum parameter tolerance     =   0.000010000
  Maximum function  tolerance     =   0.000010000
  Maximum gradient  tolerance     =   0.001000000
  Maximum gradient  component     =   0.010000000

  Symmetry constrained optimisation

  Symmetry used for second derivatives

  Cell parameters to be optimised using strains

  Newton-Raphson optimiser to be used

  BFGS hessian update to be used

  Start of bulk optimisation :

  Cycle:      0 Energy:       -30.174937  Gnorm:      7.723310  CPU:    0.013
  ** Hessian calculated **
  Cycle:      1 Energy:       -30.750666  Gnorm:      0.452973  CPU:    0.031
  ** Hessian calculated **
  Cycle:      2 Energy:       -30.754667  Gnorm:      0.013417  CPU:    0.056
  Cycle:      3 Energy:       -30.754690  Gnorm:      0.001859  CPU:    0.070


  **** Optimisation achieved ****


  Final energy =     -30.75469045 eV
  Final Gnorm  =       0.00001122

  Components of energy : 

--------------------------------------------------------------------------------
  Interatomic potentials     =           3.61940022 eV
  Monopole - monopole (real) =          -9.32049245 eV
  Monopole - monopole (recip)=         -25.05359822 eV
  Monopole - monopole (total)=         -34.37409067 eV
--------------------------------------------------------------------------------
  Total lattice energy : 
    Primitive unit cell      =         -30.75469045 eV
    Non-primitive unit cell  =         -92.26407135 eV
--------------------------------------------------------------------------------
  Total lattice energy (in kJmol-1): 
    Primitive unit cell      =           -2967.3575 kJ/(mole unit cells)
    Non-primitive unit cell  =           -8902.0725 kJ/(mole unit cells)
--------------------------------------------------------------------------------

  Final asymmetric unit coordinates :

--------------------------------------------------------------------------------
   No.  Atomic        x           y           z         Radius
        Label       (Frac)      (Frac)      (Frac)       (Angs) 
--------------------------------------------------------------------------------
     1  Tb    c     0.000000    0.000000    0.000000    0.000000
     2  Ba    c     0.000000    0.000000    0.250000    0.000000
     3  O     c     0.462400    0.000000    0.250000    0.000000
     4  O     s     0.462400    0.000000    0.250000    0.000000
--------------------------------------------------------------------------------

  Final Cartesian lattice vectors (Angstroms) :

        3.242492    1.872054    5.200801
       -3.242492    1.872054    5.200801
        0.000000   -3.744107    5.200801


  Final cell parameters and derivatives :

--------------------------------------------------------------------------------
       a            6.408328 Angstrom     dE/de1(xx)    -0.000011 eV/strain
       b            6.408328 Angstrom     dE/de2(yy)     0.000000 eV/strain
       c            6.408328 Angstrom     dE/de3(zz)     0.000019 eV/strain
       alpha       60.792980 Degrees      dE/de4(yz)     0.000000 eV/strain
       beta        60.792980 Degrees      dE/de5(xz)     0.000000 eV/strain
       gamma       60.792980 Degrees      dE/de6(xy)     0.000000 eV/strain
--------------------------------------------------------------------------------

  Primitive cell volume =           189.416873 Angs**3

  Density of cell =      6.036065 g/cm**3

  Non-primitive lattice parameters :

  a    =     6.484984  b   =     6.484984  c    =    15.602404
  alpha=    90.000000  beta=    90.000000  gamma=   120.000000

  Non-primitive cell volume =           568.250620 Angs**3


  Final internal derivatives :

--------------------------------------------------------------------------------
   No.  Atomic          a             b             c           Radius
        Label          (eV)          (eV)          (eV)        (eV/Angs)
--------------------------------------------------------------------------------
      1 Tb    c       0.000000      0.000000      0.000000      0.000000
      2 Ba    c       0.000000      0.000000      0.000000      0.000000
      3 O     c       0.000000      0.000000      0.000000      0.000000
      4 O     s       0.000000      0.000000      0.000000      0.000000
--------------------------------------------------------------------------------
  Maximum abs         0.000000      0.000000      0.000000      0.000000
--------------------------------------------------------------------------------


  Born effective charge tensors : 

-------------------------------------------------------------------------------
  Atom             x           y             z
-------------------------------------------------------------------------------
   1 Tb    x       0.3085     -0.0094      0.0000
           y       0.0094      0.3085      0.0000
           z       0.0000      0.0000      0.3243
-------------------------------------------------------------------------------
   2 Ba    x       1.6733      0.0000      0.0000
           y       0.0000      1.6733      0.0000
           z       0.0000      0.0000      1.6880
-------------------------------------------------------------------------------
   3 O     x      -0.7773      0.0000      0.0000
           y       0.0000     -0.5439      0.1735
           z       0.0000      0.1767     -0.6708
-------------------------------------------------------------------------------




  Elastic Constant Matrix: (Units=GPa)

-------------------------------------------------------------------------------
  Indices      1         2         3         4         5         6    
-------------------------------------------------------------------------------
       1     39.2620   12.4899   23.1911  -16.8019    0.0000    0.0000
       2     12.4899   39.2620   23.1911   16.8019    0.0000    0.0000
       3     23.1911   23.1911   23.5305    0.0000    0.0000    0.0000
       4    -16.8019   16.8019    0.0000   23.5989    0.0000    0.0000
       5      0.0000    0.0000    0.0000    0.0000   23.5989  -16.8019
       6      0.0000    0.0000    0.0000    0.0000  -16.8019   13.3861
-------------------------------------------------------------------------------


  Elastic Compliance Matrix: (Units=1/GPa)

-------------------------------------------------------------------------------
  Indices      1         2         3         4         5         6    
-------------------------------------------------------------------------------
       1    0.258434 -0.092832 -0.163213  0.250095  0.000000  0.000000
       2   -0.092832  0.258434 -0.163213 -0.250095  0.000000  0.000000
       3   -0.163213 -0.163213  0.364217  0.000000  0.000000  0.000000
       4    0.250095 -0.250095  0.000000  0.398500  0.000000  0.000000
       5    0.000000  0.000000  0.000000  0.000000  0.398500  0.500190
       6    0.000000  0.000000  0.000000  0.000000  0.500190  0.702533
-------------------------------------------------------------------------------

  Mechanical properties :

-------------------------------------------------------------------------------
  Convention :                    Reuss         Voigt         Hill
-------------------------------------------------------------------------------
  Bulk  Modulus (GPa)     =      23.49238      24.42206      23.95722
  Shear Modulus (GPa)     =       1.54640      14.99558       8.27099
-------------------------------------------------------------------------------
  Velocity S-wave (km/s)  =       0.50615       1.57618       1.17058
  Velocity P-wave (km/s)  =       2.05757       2.71265       2.40749
-------------------------------------------------------------------------------
  Compressibility (1/GPa) =    0.04256699
-------------------------------------------------------------------------------
  Stress axis :                     x             y             z
-------------------------------------------------------------------------------
  Youngs Moduli (GPa)     =       3.86946       3.86946       2.74562
-------------------------------------------------------------------------------
  Poissons Ratio (x)      =                     0.35921       0.44812
  Poissons Ratio (y)      =       0.35921                     0.44812
  Poissons Ratio (z)      =       0.63155       0.63155
-------------------------------------------------------------------------------


  Piezoelectric Strain Matrix: (Units=C/m**2)

-------------------------------------------------------------------------------
  Indices      1         2         3         4         5         6    
-------------------------------------------------------------------------------
       x     0.00000   0.00000   0.00000   0.00000   0.00000   0.00000
       y     0.00000   0.00000   0.00000   0.00000   0.00000   0.00000
       z     0.00000   0.00000   0.00000   0.00000   0.00000   0.00000
-------------------------------------------------------------------------------


  Piezoelectric Stress Matrix: (Units=10**-11 C/N)

-------------------------------------------------------------------------------
  Indices      1         2         3         4         5         6    
-------------------------------------------------------------------------------
       x     0.00000   0.00000   0.00000   0.00000   0.00000   0.00000
       y     0.00000   0.00000   0.00000   0.00000   0.00000   0.00000
       z     0.00000   0.00000   0.00000   0.00000   0.00000   0.00000
-------------------------------------------------------------------------------


  Static dielectric constant tensor : 

-------------------------------------------------------------------------------
              x         y         z
-------------------------------------------------------------------------------
       x    -3.52134   0.00000   0.00000
       y     0.00000  -3.52134   0.00000
       z     0.00000   0.00000  -2.41731
--------------------------------------------------------------------------------

  High frequency dielectric constant tensor : 

-------------------------------------------------------------------------------
              x         y         z
-------------------------------------------------------------------------------
       x     1.45271   0.00000   0.00000
       y     0.00000   1.45271   0.00000
       z     0.00000   0.00000   1.45809
-------------------------------------------------------------------------------

  Static refractive indices : 

-------------------------------------------------------------------------------
    1 =   -1.87652      2 =   -1.87652      3 =   -1.55477
-------------------------------------------------------------------------------

  High frequency refractive indices : 

-------------------------------------------------------------------------------
    1 =    1.20528      2 =    1.20528      3 =    1.20752
-------------------------------------------------------------------------------


  Time to end of optimisation =       0.1085 seconds


  Peak dynamic memory used =       0.57 MB 


  Timing analysis for GULP :

--------------------------------------------------------------------------------
  Task / Subroutine                                          Time (Seconds)
--------------------------------------------------------------------------------
  Calculation of reciprocal space energy and derivatives          0.0009
  Calculation of reciprocal space energy using symmetry           0.0018
  Calculation of real space energy and derivatives                0.0222
  Calculation of real space energy using symmetry                 0.0802
  Symmetry generation of equivalent positions                     0.0003
--------------------------------------------------------------------------------
  Total CPU time                                                  0.1086
--------------------------------------------------------------------------------


  CIF file written as perov.cif                                               


  Job Finished at 09:30.27  6th April      2017                               

