********************************************************************************
*                       GENERAL UTILITY LATTICE PROGRAM                        *
*                                 Julian Gale                                  *
*                      Nanochemistry Research Institute                        *
*                           Department of Chemistry                            *
*                    Curtin University, Western Australia                      *
********************************************************************************
* Version = 4.3.2 * Last modified =  3rd March 2015                            *
********************************************************************************
*  optimise     - perform optimisation run                                     *
*  conp         - constant pressure calculation                                *
*  property     - calculate properties for final geometry                      *
********************************************************************************

  Job Started  at 14:51.21 22nd February   2017                               

  Number of CPUs =     1


  Total number of configurations input =   1

********************************************************************************
*  Input for Configuration =   1                                               *
********************************************************************************

  Formula = K2Mn2F6                                                     

  Number of irreducible atoms/shells =       6


  Total number atoms/shells =      16

  Dimensionality = 3               :  Bulk   


  Symmetry :

  Crystal family                   :  Tetragonal  
  Crystal class  (Groth - 1921)    :  Ditetragonal Dipyramidal             

  Space group (centrosymmetric)    :  I 4/M C M       

  Patterson group                  :  I 4/m m m

  Cartesian lattice vectors (Angstroms) :

       -2.100000    2.100000    2.100000
        2.100000   -2.100000    2.100000
        2.100000    2.100000   -2.100000

  Primitive cell parameters :            Full cell parameters :

  a =   3.6373    alpha = 109.4712       a =   4.2000    alpha =  90.0000
  b =   3.6373    beta  = 109.4712       b =   4.2000    beta  =  90.0000
  c =   3.6373    gamma = 109.4712       c =   4.2000    gamma =  90.0000

  Initial volumes (Angstroms**3):

  Primitive cell =          37.044000    Full cell =          74.088000

  Temperature of configuration =  0.000     K 

  Pressure of configuration =         0.000 GPa 

  Fractional coordinates of asymmetric unit :

--------------------------------------------------------------------------------
   No.  Atomic       x           y          z         Charge      Occupancy
        Label      (Frac)      (Frac)     (Frac)        (e)         (Frac)  
--------------------------------------------------------------------------------
      1 K     c    0.000000    0.500000    0.250000     0.80000    1.000000    
      2 Mn    c    0.000000    0.000000    0.000000     2.10000    1.000000    
      3 F     c    0.240600 *  0.740600    0.000000     0.37800    1.000000    
      4 F     c    0.000000    0.000000    0.250000     0.37800    1.000000    
      5 F     s    0.240600 *  0.740600    0.000000    -1.34467    1.000000    
      6 F     s    0.000000    0.000000    0.250000    -1.34467    1.000000    
--------------------------------------------------------------------------------


  Constraints : 

--------------------------------------------------------------------------------
  Constraint no.      Unconstrained     Constrained    Coefficient    Offset
                         Variable         Variable
--------------------------------------------------------------------------------
           1              Strain 1        Strain 2       1.00000      0.0000
           2                 3 x             3 y         1.00000      0.5000
           3                 5 x             5 y         1.00000      0.5000
--------------------------------------------------------------------------------


********************************************************************************
*  General input information                                                   *
********************************************************************************

  Species output for all configurations : 

--------------------------------------------------------------------------------
  Species    Type    Atomic    Atomic    Charge       Radii (Angs)     Library
                     Number     Mass       (e)     Cova   Ionic  VDW   Symbol
--------------------------------------------------------------------------------
    K        Core       19      39.10   0.800000   1.330  0.000  2.800          
    Mn       Core       25      54.94   2.100000   1.350  0.000  2.010          
    F        Core        9      19.00   0.378000   0.710  0.000  1.300          
    F        Shell       9       0.00  -1.344667   0.710  0.000  1.300          
--------------------------------------------------------------------------------


  Lattice summation method               =    Ewald          (3-D)
                                         =    Parry          (2-D)
                                         =    Saunders et al (1-D)
  Accuracy factor for lattice sums       =   12.000


  Time limit = Infinity

  Maximum range for interatomic potentials =    100000.000000 Angstroms

  General interatomic potentials :

--------------------------------------------------------------------------------
Atom  Types   Potential         A         B         C         D     Cutoffs(Ang)
  1     2                                                            Min    Max 
--------------------------------------------------------------------------------
K    c K    c Buckingham    0.219E+04 0.192      0.00      0.00     0.000 10.000
Mn   c F    s Buckingham    0.148E+04 0.266      0.00      0.00     0.000 10.000
F    s F    s Buckingham     912.     0.271      40.0      0.00     0.000 10.000
K    c F    s Buckingham    0.352E+04 0.267      0.00      0.00     0.000 10.000
F    c F    s Spring (c-s)   23.2      0.00      0.00      0.00     0.000  0.800
--------------------------------------------------------------------------------

********************************************************************************
*  Output for configuration   1                                                *
********************************************************************************


  Components of energy : 

--------------------------------------------------------------------------------
  Interatomic potentials     =         232.40796252 eV
  Monopole - monopole (real) =         -51.75966976 eV
  Monopole - monopole (recip)=         -84.90171267 eV
  Monopole - monopole (total)=        -136.66138243 eV
--------------------------------------------------------------------------------
  Total lattice energy : 
    Primitive unit cell      =          95.74658010 eV
    Non-primitive unit cell  =         191.49316020 eV
--------------------------------------------------------------------------------
  Total lattice energy (in kJmol-1): 
    Primitive unit cell      =            9238.0814 kJ/(mole unit cells)
    Non-primitive unit cell  =           18476.1627 kJ/(mole unit cells)
--------------------------------------------------------------------------------


  Number of variables =        4

  Maximum number of calculations  =          1000
  Maximum Hessian update interval =            10
  Maximum step size               =   1.000000000
  Maximum parameter tolerance     =   0.000010000
  Maximum function  tolerance     =   0.000010000
  Maximum gradient  tolerance     =   0.001000000
  Maximum gradient  component     =   0.010000000

  Symmetry constrained optimisation

  Symmetry used for second derivatives

  Cell parameters to be optimised using strains

  Newton-Raphson optimiser to be used

  BFGS hessian update to be used

  Start of bulk optimisation :

  Cycle:      0 Energy:        95.746580  Gnorm:    199.476691  CPU:    0.010
  ** Hessian calculated **
  Cycle:      1 Energy:       -76.951968  Gnorm:      4.936946  CPU:    0.033
  ** Hessian calculated **
  Cycle:      2 Energy:       -77.484204  Gnorm:      0.983174  CPU:    0.046
  Cycle:      3 Energy:       -77.502770  Gnorm:      0.505814  CPU:    0.055
  Cycle:      4 Energy:       -77.504781  Gnorm:      0.348410  CPU:    0.063
  Cycle:      5 Energy:       -77.504971  Gnorm:      0.033499  CPU:    0.071
  Cycle:      6 Energy:       -77.504973  Gnorm:      0.001193  CPU:    0.078


  **** Optimisation achieved ****


  Final energy =     -77.50497323 eV
  Final Gnorm  =       0.00006903

  Components of energy : 

--------------------------------------------------------------------------------
  Interatomic potentials     =          10.06260809 eV
  Monopole - monopole (real) =         -31.36167104 eV
  Monopole - monopole (recip)=         -56.20591028 eV
  Monopole - monopole (total)=         -87.56758132 eV
--------------------------------------------------------------------------------
  Total lattice energy : 
    Primitive unit cell      =         -77.50497323 eV
    Non-primitive unit cell  =        -155.00994645 eV
--------------------------------------------------------------------------------
  Total lattice energy (in kJmol-1): 
    Primitive unit cell      =           -7478.0451 kJ/(mole unit cells)
    Non-primitive unit cell  =          -14956.0903 kJ/(mole unit cells)
--------------------------------------------------------------------------------

  Final asymmetric unit coordinates :

--------------------------------------------------------------------------------
   No.  Atomic        x           y           z         Radius
        Label       (Frac)      (Frac)      (Frac)       (Angs) 
--------------------------------------------------------------------------------
     1  K     c     0.000000    0.500000    0.250000    0.000000
     2  Mn    c     0.000000    0.000000    0.000000    0.000000
     3  F     c     0.250000    0.750000    0.000000    0.000000
     4  F     c     0.000000    0.000000    0.250000    0.000000
     5  F     s     0.250000    0.750000    0.000000    0.000000
     6  F     s     0.000000    0.000000    0.250000    0.000000
--------------------------------------------------------------------------------

  Final Cartesian lattice vectors (Angstroms) :

       -2.833852    2.833852    4.007675
        2.833852   -2.833852    4.007675
        2.833852    2.833852   -4.007675


  Final cell parameters and derivatives :

--------------------------------------------------------------------------------
       a            5.667706 Angstrom     dE/de1(xx)    -0.000053 eV/strain
       b            5.667706 Angstrom     dE/de2(yy)     0.000000 eV/strain
       c            5.667706 Angstrom     dE/de3(zz)     0.000034 eV/strain
       alpha      120.000022 Degrees      dE/de4(yz)     0.000000 eV/strain
       beta       120.000022 Degrees      dE/de5(xz)     0.000000 eV/strain
       gamma       89.999962 Degrees      dE/de6(xy)     0.000000 eV/strain
--------------------------------------------------------------------------------

  Primitive cell volume =           128.738010 Angs**3

  Density of cell =      3.896469 g/cm**3

  Non-primitive lattice parameters :

  a    =     5.667704  b   =     5.667704  c    =     8.015349
  alpha=    90.000000  beta=    90.000000  gamma=    90.000000

  Non-primitive cell volume =           257.476019 Angs**3


  Final internal derivatives :

--------------------------------------------------------------------------------
   No.  Atomic          a             b             c           Radius
        Label          (eV)          (eV)          (eV)        (eV/Angs)
--------------------------------------------------------------------------------
      1 K     c       0.000000      0.000000      0.000000      0.000000
      2 Mn    c       0.000000      0.000000      0.000000      0.000000
      3 F     c      -0.000135      0.000000      0.000000      0.000000
      4 F     c       0.000000      0.000000      0.000000      0.000000
      5 F     s       0.000233      0.000000      0.000000      0.000000
      6 F     s       0.000000      0.000000      0.000000      0.000000
--------------------------------------------------------------------------------
  Maximum abs         0.000233      0.000000      0.000000      0.000000
--------------------------------------------------------------------------------


  Born effective charge tensors : 

-------------------------------------------------------------------------------
  Atom             x           y             z
-------------------------------------------------------------------------------
   1 K     x       0.7469      0.0000      0.0000
           y       0.0000      0.7469      0.0000
           z       0.0000      0.0000      0.7469
-------------------------------------------------------------------------------
   2 Mn    x       1.6434      0.0000      0.0000
           y       0.0000      1.6434      0.0000
           z       0.0000      0.0000      1.6434
-------------------------------------------------------------------------------
   3 F     x      -0.8087      0.0358      0.0000
           y       0.0358     -0.8087      0.0000
           z       0.0000      0.0000     -0.7729
-------------------------------------------------------------------------------
   4 F     x      -0.7729      0.0000      0.0000
           y       0.0000     -0.7729      0.0000
           z       0.0000      0.0000     -0.8445
-------------------------------------------------------------------------------




  Elastic Constant Matrix: (Units=GPa)

-------------------------------------------------------------------------------
  Indices      1         2         3         4         5         6    
-------------------------------------------------------------------------------
       1    141.7726   55.9590   42.9068    0.0000    0.0000    0.0000
       2     55.9590  141.7726   42.9068    0.0000    0.0000    0.0000
       3     42.9068   42.9068  154.8241    0.0000    0.0000    0.0000
       4      0.0000    0.0000    0.0000   42.9068    0.0000    0.0000
       5      0.0000    0.0000    0.0000    0.0000   42.9068    0.0000
       6      0.0000    0.0000    0.0000    0.0000    0.0000   55.9590
-------------------------------------------------------------------------------


  Elastic Compliance Matrix: (Units=1/GPa)

-------------------------------------------------------------------------------
  Indices      1         2         3         4         5         6    
-------------------------------------------------------------------------------
       1    0.008701 -0.002952 -0.001593  0.000000  0.000000  0.000000
       2   -0.002952  0.008701 -0.001593  0.000000  0.000000  0.000000
       3   -0.001593 -0.001593  0.007342  0.000000  0.000000  0.000000
       4    0.000000  0.000000  0.000000  0.023306  0.000000  0.000000
       5    0.000000  0.000000  0.000000  0.000000  0.023306  0.000000
       6    0.000000  0.000000  0.000000  0.000000  0.000000  0.017870
-------------------------------------------------------------------------------

  Mechanical properties :

-------------------------------------------------------------------------------
  Convention :                    Reuss         Voigt         Hill
-------------------------------------------------------------------------------
  Bulk  Modulus (GPa)     =      80.21275      80.21275      80.21275
  Shear Modulus (GPa)     =      47.32183      48.12764      47.72474
-------------------------------------------------------------------------------
  Velocity S-wave (km/s)  =       3.48494       3.51449       3.49974
  Velocity P-wave (km/s)  =       6.06458       6.08727       6.07593
-------------------------------------------------------------------------------
  Compressibility (1/GPa) =    0.01246685
-------------------------------------------------------------------------------
  Stress axis :                     x             y             z
-------------------------------------------------------------------------------
  Youngs Moduli (GPa)     =     114.92971     114.92971     136.20297
-------------------------------------------------------------------------------
  Poissons Ratio (x)      =                     0.33929       0.21700
  Poissons Ratio (y)      =       0.33929                     0.21700
  Poissons Ratio (z)      =       0.18310       0.18310
-------------------------------------------------------------------------------


  Piezoelectric Strain Matrix: (Units=C/m**2)

-------------------------------------------------------------------------------
  Indices      1         2         3         4         5         6    
-------------------------------------------------------------------------------
       x     0.00000   0.00000   0.00000   0.00000   0.00000   0.00000
       y     0.00000   0.00000   0.00000   0.00000   0.00000   0.00000
       z     0.00000   0.00000   0.00000   0.00000   0.00000   0.00000
-------------------------------------------------------------------------------


  Piezoelectric Stress Matrix: (Units=10**-11 C/N)

-------------------------------------------------------------------------------
  Indices      1         2         3         4         5         6    
-------------------------------------------------------------------------------
       x     0.00000   0.00000   0.00000   0.00000   0.00000   0.00000
       y     0.00000   0.00000   0.00000   0.00000   0.00000   0.00000
       z     0.00000   0.00000   0.00000   0.00000   0.00000   0.00000
-------------------------------------------------------------------------------


  Static dielectric constant tensor : 

-------------------------------------------------------------------------------
              x         y         z
-------------------------------------------------------------------------------
       x     3.43027   0.00000   0.00000
       y     0.00000   3.43027   0.00000
       z     0.00000   0.00000   3.43028
--------------------------------------------------------------------------------

  High frequency dielectric constant tensor : 

-------------------------------------------------------------------------------
              x         y         z
-------------------------------------------------------------------------------
       x     1.61354   0.00000   0.00000
       y     0.00000   1.61354   0.00000
       z     0.00000   0.00000   1.61354
-------------------------------------------------------------------------------

  Static refractive indices : 

-------------------------------------------------------------------------------
    1 =    1.85210      2 =    1.85210      3 =    1.85210
-------------------------------------------------------------------------------

  High frequency refractive indices : 

-------------------------------------------------------------------------------
    1 =    1.27025      2 =    1.27025      3 =    1.27025
-------------------------------------------------------------------------------


  Time to end of optimisation =       0.0941 seconds


  Peak dynamic memory used =       0.59 MB 


  Timing analysis for GULP :

--------------------------------------------------------------------------------
  Task / Subroutine                                          Time (Seconds)
--------------------------------------------------------------------------------
  Calculation of reciprocal space energy and derivatives          0.0012
  Calculation of reciprocal space energy using symmetry           0.0033
  Calculation of real space energy and derivatives                0.0066
  Calculation of real space energy using symmetry                 0.0789
  Symmetry generation of equivalent positions                     0.0004
--------------------------------------------------------------------------------
  Total CPU time                                                  0.0942
--------------------------------------------------------------------------------


  CIF file written as perov.cif                                               


  Job Finished at 14:51.21 22nd February   2017                               

