********************************************************************************
*                       GENERAL UTILITY LATTICE PROGRAM                        *
*                                 Julian Gale                                  *
*                      Nanochemistry Research Institute                        *
*                           Department of Chemistry                            *
*                    Curtin University, Western Australia                      *
********************************************************************************
* Version = 4.3.2 * Last modified =  3rd March 2015                            *
********************************************************************************
*  optimise     - perform optimisation run                                     *
*  conp         - constant pressure calculation                                *
*  property     - calculate properties for final geometry                      *
********************************************************************************

  Job Started  at 14:51.20 22nd February   2017                               

  Number of CPUs =     1


  Total number of configurations input =   1

********************************************************************************
*  Input for Configuration =   1                                               *
********************************************************************************

  Formula = K2Mn2F6                                                     

  Number of irreducible atoms/shells =       6


  Total number atoms/shells =      16

  Dimensionality = 3               :  Bulk   


  Symmetry :

  Crystal family                   :  Tetragonal  
  Crystal class  (Groth - 1921)    :  Ditetragonal Dipyramidal             

  Space group (centrosymmetric)    :  I 4/M C M       

  Patterson group                  :  I 4/m m m

  Cartesian lattice vectors (Angstroms) :

       -2.100000    2.100000    2.100000
        2.100000   -2.100000    2.100000
        2.100000    2.100000   -2.100000

  Primitive cell parameters :            Full cell parameters :

  a =   3.6373    alpha = 109.4712       a =   4.2000    alpha =  90.0000
  b =   3.6373    beta  = 109.4712       b =   4.2000    beta  =  90.0000
  c =   3.6373    gamma = 109.4712       c =   4.2000    gamma =  90.0000

  Initial volumes (Angstroms**3):

  Primitive cell =          37.044000    Full cell =          74.088000

  Temperature of configuration =  0.000     K 

  Pressure of configuration =         0.000 GPa 

  Fractional coordinates of asymmetric unit :

--------------------------------------------------------------------------------
   No.  Atomic       x           y          z         Charge      Occupancy
        Label      (Frac)      (Frac)     (Frac)        (e)         (Frac)  
--------------------------------------------------------------------------------
      1 K     c    0.000000    0.500000    0.250000     0.70000    1.000000    
      2 Mn    c    0.000000    0.000000    0.000000     2.00000    1.000000    
      3 F     c    0.240600 *  0.740600    0.000000     0.37800    1.000000    
      4 F     c    0.000000    0.000000    0.250000     0.37800    1.000000    
      5 F     s    0.240600 *  0.740600    0.000000    -1.27800    1.000000    
      6 F     s    0.000000    0.000000    0.250000    -1.27800    1.000000    
--------------------------------------------------------------------------------


  Constraints : 

--------------------------------------------------------------------------------
  Constraint no.      Unconstrained     Constrained    Coefficient    Offset
                         Variable         Variable
--------------------------------------------------------------------------------
           1              Strain 1        Strain 2       1.00000      0.0000
           2                 3 x             3 y         1.00000      0.5000
           3                 5 x             5 y         1.00000      0.5000
--------------------------------------------------------------------------------


********************************************************************************
*  General input information                                                   *
********************************************************************************

  Species output for all configurations : 

--------------------------------------------------------------------------------
  Species    Type    Atomic    Atomic    Charge       Radii (Angs)     Library
                     Number     Mass       (e)     Cova   Ionic  VDW   Symbol
--------------------------------------------------------------------------------
    K        Core       19      39.10   0.700000   1.330  0.000  2.800          
    Mn       Core       25      54.94   2.000000   1.350  0.000  2.010          
    F        Core        9      19.00   0.378000   0.710  0.000  1.300          
    F        Shell       9       0.00  -1.278000   0.710  0.000  1.300          
--------------------------------------------------------------------------------


  Lattice summation method               =    Ewald          (3-D)
                                         =    Parry          (2-D)
                                         =    Saunders et al (1-D)
  Accuracy factor for lattice sums       =   12.000


  Time limit = Infinity

  Maximum range for interatomic potentials =    100000.000000 Angstroms

  General interatomic potentials :

--------------------------------------------------------------------------------
Atom  Types   Potential         A         B         C         D     Cutoffs(Ang)
  1     2                                                            Min    Max 
--------------------------------------------------------------------------------
K    c K    c Buckingham    0.219E+04 0.192      0.00      0.00     0.000 10.000
Mn   c F    s Buckingham    0.148E+04 0.266      0.00      0.00     0.000 10.000
F    s F    s Buckingham     912.     0.271      40.0      0.00     0.000 10.000
K    c F    s Buckingham    0.352E+04 0.267      0.00      0.00     0.000 10.000
F    c F    s Spring (c-s)   20.9      0.00      0.00      0.00     0.000  0.800
--------------------------------------------------------------------------------

********************************************************************************
*  Output for configuration   1                                                *
********************************************************************************


  Components of energy : 

--------------------------------------------------------------------------------
  Interatomic potentials     =         232.40796252 eV
  Monopole - monopole (real) =         -45.63997311 eV
  Monopole - monopole (recip)=         -74.77200258 eV
  Monopole - monopole (total)=        -120.41197569 eV
--------------------------------------------------------------------------------
  Total lattice energy : 
    Primitive unit cell      =         111.99598683 eV
    Non-primitive unit cell  =         223.99197367 eV
--------------------------------------------------------------------------------
  Total lattice energy (in kJmol-1): 
    Primitive unit cell      =           10805.9007 kJ/(mole unit cells)
    Non-primitive unit cell  =           21611.8014 kJ/(mole unit cells)
--------------------------------------------------------------------------------


  Number of variables =        4

  Maximum number of calculations  =          1000
  Maximum Hessian update interval =            10
  Maximum step size               =   1.000000000
  Maximum parameter tolerance     =   0.000010000
  Maximum function  tolerance     =   0.000010000
  Maximum gradient  tolerance     =   0.001000000
  Maximum gradient  component     =   0.010000000

  Symmetry constrained optimisation

  Symmetry used for second derivatives

  Cell parameters to be optimised using strains

  Newton-Raphson optimiser to be used

  BFGS hessian update to be used

  Start of bulk optimisation :

  Cycle:      0 Energy:       111.995987  Gnorm:    202.382866  CPU:    0.010
  ** Hessian calculated **
  Cycle:      1 Energy:       -66.464971  Gnorm:      5.509198  CPU:    0.031
  ** Hessian calculated **
  Cycle:      2 Energy:       -67.157612  Gnorm:      1.577824  CPU:    0.043
  Cycle:      3 Energy:       -67.179982  Gnorm:      0.638735  CPU:    0.053
  Cycle:      4 Energy:       -67.182972  Gnorm:      0.210694  CPU:    0.062
  Cycle:      5 Energy:       -67.183083  Gnorm:      0.191173  CPU:    0.077
  Cycle:      6 Energy:       -67.183083  Gnorm:      0.191173  CPU:    0.086
  ** Hessian calculated **
  Cycle:      7 Energy:       -67.183084  Gnorm:      0.190997  CPU:    0.102
  Cycle:      8 Energy:       -67.183085  Gnorm:      0.190833  CPU:    0.115
  Cycle:      9 Energy:       -67.183085  Gnorm:      0.190699  CPU:    0.128
  Cycle:     10 Energy:       -67.183086  Gnorm:      0.190588  CPU:    0.142
  Cycle:     11 Energy:       -67.183086  Gnorm:      0.190494  CPU:    0.155
  Cycle:     12 Energy:       -67.183087  Gnorm:      0.190410  CPU:    0.167
  Cycle:     13 Energy:       -67.183087  Gnorm:      0.190369  CPU:    0.180
  Cycle:     14 Energy:       -67.183087  Gnorm:      0.190348  CPU:    0.193
  Cycle:     15 Energy:       -67.183087  Gnorm:      0.190348  CPU:    0.202
  ** Hessian calculated **
  Cycle:     16 Energy:       -67.183087  Gnorm:      0.190348  CPU:    0.220
  ** Hessian calculated **


  **** Conditions for a minimum have not been satisfied. However ****
  **** no lower point can be found - treat results with caution  ****
  **** unless gradient norm is small (less than 0.1)             ****


  Final energy =     -67.18308684 eV
  Final Gnorm  =       0.19034771

  Components of energy : 

--------------------------------------------------------------------------------
  Interatomic potentials     =           8.48374444 eV
  Monopole - monopole (real) =         -13.49081437 eV
  Monopole - monopole (recip)=         -62.17601691 eV
  Monopole - monopole (total)=         -75.66683127 eV
--------------------------------------------------------------------------------
  Total lattice energy : 
    Primitive unit cell      =         -67.18308684 eV
    Non-primitive unit cell  =        -134.36617368 eV
--------------------------------------------------------------------------------
  Total lattice energy (in kJmol-1): 
    Primitive unit cell      =           -6482.1409 kJ/(mole unit cells)
    Non-primitive unit cell  =          -12964.2818 kJ/(mole unit cells)
--------------------------------------------------------------------------------

  Final asymmetric unit coordinates :

--------------------------------------------------------------------------------
   No.  Atomic        x           y           z         Radius
        Label       (Frac)      (Frac)      (Frac)       (Angs) 
--------------------------------------------------------------------------------
     1  K     c     0.000000    0.500000    0.250000    0.000000
     2  Mn    c     0.000000    0.000000    0.000000    0.000000
     3  F     c     0.248868    0.748868    0.000000    0.000000
     4  F     c     0.000000    0.000000    0.250000    0.000000
     5  F     s     0.248868    0.748868    0.000000    0.000000
     6  F     s     0.000000    0.000000    0.250000    0.000000
--------------------------------------------------------------------------------

  Final Cartesian lattice vectors (Angstroms) :

       -2.892192    2.892192    4.078630
        2.892192   -2.892192    4.078630
        2.892192    2.892192   -4.078630


  Final cell parameters and derivatives :

--------------------------------------------------------------------------------
       a            5.776225 Angstrom     dE/de1(xx)     0.328662 eV/strain
       b            5.776225 Angstrom     dE/de2(yy)     0.000000 eV/strain
       c            5.776225 Angstrom     dE/de3(zz)    -0.071251 eV/strain
       alpha      119.906526 Degrees      dE/de4(yz)     0.000000 eV/strain
       beta       119.906526 Degrees      dE/de5(xz)     0.000000 eV/strain
       gamma       90.161979 Degrees      dE/de6(xy)     0.000000 eV/strain
--------------------------------------------------------------------------------

  Primitive cell volume =           136.467294 Angs**3

  Density of cell =      3.675779 g/cm**3

  Non-primitive lattice parameters :

  a    =     5.784384  b   =     5.784384  c    =     8.157261
  alpha=    90.000000  beta=    90.000000  gamma=    90.000000

  Non-primitive cell volume =           272.934588 Angs**3


  Final internal derivatives :

--------------------------------------------------------------------------------
   No.  Atomic          a             b             c           Radius
        Label          (eV)          (eV)          (eV)        (eV/Angs)
--------------------------------------------------------------------------------
      1 K     c       0.000000      0.000000      0.000000      0.000000
      2 Mn    c       0.000000      0.000000      0.000000      0.000000
      3 F     c       0.244335      0.000000      0.000000      0.000000
      4 F     c       0.000000      0.000000      0.000000      0.000000
      5 F     s      -0.637904      0.000000      0.000000      0.000000
      6 F     s       0.000000      0.000000      0.000000      0.000000
--------------------------------------------------------------------------------
  Maximum abs         0.637904      0.000000      0.000000      0.000000
--------------------------------------------------------------------------------


  Born effective charge tensors : 

-------------------------------------------------------------------------------
  Atom             x           y             z
-------------------------------------------------------------------------------
   1 K     x       0.6497      0.0000      0.0000
           y       0.0000      0.6497      0.0000
           z       0.0000      0.0000      0.6488
-------------------------------------------------------------------------------
   2 Mn    x       1.5785     -0.0002      0.0000
           y       0.0002      1.5785      0.0000
           z       0.0000      0.0000      1.5648
-------------------------------------------------------------------------------
   3 F     x      -0.7537      0.0338      0.0000
           y       0.0338     -0.7537      0.0000
           z       0.0000      0.0000     -0.7197
-------------------------------------------------------------------------------
   4 F     x      -0.7209      0.0000      0.0000
           y       0.0000     -0.7209      0.0000
           z       0.0000      0.0000     -0.7743
-------------------------------------------------------------------------------




  Elastic Constant Matrix: (Units=GPa)

-------------------------------------------------------------------------------
  Indices      1         2         3         4         5         6    
-------------------------------------------------------------------------------
       1    116.6206   48.4051   34.0241    0.0000    0.0000    0.0000
       2     48.4051  116.6206   34.0241    0.0000    0.0000    0.0000
       3     34.0241   34.0241  133.5389    0.0000    0.0000    0.0000
       4      0.0000    0.0000    0.0000   34.0651    0.0000    0.0000
       5      0.0000    0.0000    0.0000    0.0000   34.0651    0.0000
       6      0.0000    0.0000    0.0000    0.0000    0.0000   48.5937
-------------------------------------------------------------------------------


  Elastic Compliance Matrix: (Units=1/GPa)

-------------------------------------------------------------------------------
  Indices      1         2         3         4         5         6    
-------------------------------------------------------------------------------
       1    0.010715 -0.003944 -0.001725  0.000000  0.000000  0.000000
       2   -0.003944  0.010715 -0.001725  0.000000  0.000000  0.000000
       3   -0.001725 -0.001725  0.008368  0.000000  0.000000  0.000000
       4    0.000000  0.000000  0.000000  0.029356  0.000000  0.000000
       5    0.000000  0.000000  0.000000  0.000000  0.029356  0.000000
       6    0.000000  0.000000  0.000000  0.000000  0.000000  0.020579
-------------------------------------------------------------------------------

  Mechanical properties :

-------------------------------------------------------------------------------
  Convention :                    Reuss         Voigt         Hill
-------------------------------------------------------------------------------
  Bulk  Modulus (GPa)     =      66.62700      66.63183      66.62942
  Shear Modulus (GPa)     =      38.79576      40.03323      39.41449
-------------------------------------------------------------------------------
  Velocity S-wave (km/s)  =       3.24876       3.30016       3.27456
  Velocity P-wave (km/s)  =       5.67437       5.71391       5.69417
-------------------------------------------------------------------------------
  Compressibility (1/GPa) =    0.01500893
-------------------------------------------------------------------------------
  Stress axis :                     x             y             z
-------------------------------------------------------------------------------
  Youngs Moduli (GPa)     =      93.32504      93.32504     119.50914
-------------------------------------------------------------------------------
  Poissons Ratio (x)      =                     0.36809       0.20617
  Poissons Ratio (y)      =       0.36809                     0.20617
  Poissons Ratio (z)      =       0.16100       0.16100
-------------------------------------------------------------------------------


  Piezoelectric Strain Matrix: (Units=C/m**2)

-------------------------------------------------------------------------------
  Indices      1         2         3         4         5         6    
-------------------------------------------------------------------------------
       x     0.00000   0.00000   0.00000   0.00000   0.00000   0.00000
       y     0.00000   0.00000   0.00000   0.00000   0.00000   0.00000
       z     0.00000   0.00000   0.00000   0.00000   0.00000   0.00000
-------------------------------------------------------------------------------


  Piezoelectric Stress Matrix: (Units=10**-11 C/N)

-------------------------------------------------------------------------------
  Indices      1         2         3         4         5         6    
-------------------------------------------------------------------------------
       x     0.00000   0.00000   0.00000   0.00000   0.00000   0.00000
       y     0.00000   0.00000   0.00000   0.00000   0.00000   0.00000
       z     0.00000   0.00000   0.00000   0.00000   0.00000   0.00000
-------------------------------------------------------------------------------


  Static dielectric constant tensor : 

-------------------------------------------------------------------------------
              x         y         z
-------------------------------------------------------------------------------
       x     3.29890   0.00000   0.00000
       y     0.00000   3.29890   0.00000
       z     0.00000   0.00000   3.25624
--------------------------------------------------------------------------------

  High frequency dielectric constant tensor : 

-------------------------------------------------------------------------------
              x         y         z
-------------------------------------------------------------------------------
       x     1.58062   0.00000   0.00000
       y     0.00000   1.58062   0.00000
       z     0.00000   0.00000   1.57808
-------------------------------------------------------------------------------

  Static refractive indices : 

-------------------------------------------------------------------------------
    1 =    1.80450      2 =    1.81629      3 =    1.81629
-------------------------------------------------------------------------------

  High frequency refractive indices : 

-------------------------------------------------------------------------------
    1 =    1.25622      2 =    1.25723      3 =    1.25723
-------------------------------------------------------------------------------


  Time to end of optimisation =       0.2453 seconds


  Peak dynamic memory used =       0.59 MB 


  Timing analysis for GULP :

--------------------------------------------------------------------------------
  Task / Subroutine                                          Time (Seconds)
--------------------------------------------------------------------------------
  Calculation of reciprocal space energy and derivatives          0.0023
  Calculation of reciprocal space energy using symmetry           0.0096
  Calculation of real space energy and derivatives                0.0065
  Calculation of real space energy using symmetry                 0.2220
  Symmetry generation of equivalent positions                     0.0006
--------------------------------------------------------------------------------
  Total CPU time                                                  0.2453
--------------------------------------------------------------------------------


  CIF file written as perov.cif                                               


  Job Finished at 14:51.20 22nd February   2017                               

