********************************************************************************
*                       GENERAL UTILITY LATTICE PROGRAM                        *
*                                 Julian Gale                                  *
*                      Nanochemistry Research Institute                        *
*                           Department of Chemistry                            *
*                    Curtin University, Western Australia                      *
********************************************************************************
* Version = 4.3.2 * Last modified =  3rd March 2015                            *
********************************************************************************
*  optimise     - perform optimisation run                                     *
*  conp         - constant pressure calculation                                *
*  property     - calculate properties for final geometry                      *
********************************************************************************

  Job Started  at 14:51.22 22nd February   2017                               

  Number of CPUs =     1


  Total number of configurations input =   1

********************************************************************************
*  Input for Configuration =   1                                               *
********************************************************************************

  Formula = K2Mn2F6                                                     

  Number of irreducible atoms/shells =       6


  Total number atoms/shells =      16

  Dimensionality = 3               :  Bulk   


  Symmetry :

  Crystal family                   :  Tetragonal  
  Crystal class  (Groth - 1921)    :  Ditetragonal Dipyramidal             

  Space group (centrosymmetric)    :  I 4/M C M       

  Patterson group                  :  I 4/m m m

  Cartesian lattice vectors (Angstroms) :

       -2.100000    2.100000    2.100000
        2.100000   -2.100000    2.100000
        2.100000    2.100000   -2.100000

  Primitive cell parameters :            Full cell parameters :

  a =   3.6373    alpha = 109.4712       a =   4.2000    alpha =  90.0000
  b =   3.6373    beta  = 109.4712       b =   4.2000    beta  =  90.0000
  c =   3.6373    gamma = 109.4712       c =   4.2000    gamma =  90.0000

  Initial volumes (Angstroms**3):

  Primitive cell =          37.044000    Full cell =          74.088000

  Temperature of configuration =  0.000     K 

  Pressure of configuration =         0.000 GPa 

  Fractional coordinates of asymmetric unit :

--------------------------------------------------------------------------------
   No.  Atomic       x           y          z         Charge      Occupancy
        Label      (Frac)      (Frac)     (Frac)        (e)         (Frac)  
--------------------------------------------------------------------------------
      1 K     c    0.000000    0.500000    0.250000     0.80000    1.000000    
      2 Mn    c    0.000000    0.000000    0.000000     2.50000    1.000000    
      3 F     c    0.240600 *  0.740600    0.000000     0.37800    1.000000    
      4 F     c    0.000000    0.000000    0.250000     0.37800    1.000000    
      5 F     s    0.240600 *  0.740600    0.000000    -1.47800    1.000000    
      6 F     s    0.000000    0.000000    0.250000    -1.47800    1.000000    
--------------------------------------------------------------------------------


  Constraints : 

--------------------------------------------------------------------------------
  Constraint no.      Unconstrained     Constrained    Coefficient    Offset
                         Variable         Variable
--------------------------------------------------------------------------------
           1              Strain 1        Strain 2       1.00000      0.0000
           2                 3 x             3 y         1.00000      0.5000
           3                 5 x             5 y         1.00000      0.5000
--------------------------------------------------------------------------------


********************************************************************************
*  General input information                                                   *
********************************************************************************

  Species output for all configurations : 

--------------------------------------------------------------------------------
  Species    Type    Atomic    Atomic    Charge       Radii (Angs)     Library
                     Number     Mass       (e)     Cova   Ionic  VDW   Symbol
--------------------------------------------------------------------------------
    K        Core       19      39.10   0.800000   1.330  0.000  2.800          
    Mn       Core       25      54.94   2.500000   1.350  0.000  2.010          
    F        Core        9      19.00   0.378000   0.710  0.000  1.300          
    F        Shell       9       0.00  -1.478000   0.710  0.000  1.300          
--------------------------------------------------------------------------------


  Lattice summation method               =    Ewald          (3-D)
                                         =    Parry          (2-D)
                                         =    Saunders et al (1-D)
  Accuracy factor for lattice sums       =   12.000


  Time limit = Infinity

  Maximum range for interatomic potentials =    100000.000000 Angstroms

  General interatomic potentials :

--------------------------------------------------------------------------------
Atom  Types   Potential         A         B         C         D     Cutoffs(Ang)
  1     2                                                            Min    Max 
--------------------------------------------------------------------------------
K    c K    c Buckingham    0.219E+04 0.192      0.00      0.00     0.000 10.000
Mn   c F    s Buckingham    0.148E+04 0.266      0.00      0.00     0.000 10.000
F    s F    s Buckingham     912.     0.271      40.0      0.00     0.000 10.000
K    c F    s Buckingham    0.352E+04 0.267      0.00      0.00     0.000 10.000
F    c F    s Spring (c-s)   28.0      0.00      0.00      0.00     0.000  0.800
--------------------------------------------------------------------------------

********************************************************************************
*  Output for configuration   1                                                *
********************************************************************************


  Components of energy : 

--------------------------------------------------------------------------------
  Interatomic potentials     =         232.40796252 eV
  Monopole - monopole (real) =         -69.35629039 eV
  Monopole - monopole (recip)=        -113.59475658 eV
  Monopole - monopole (total)=        -182.95104697 eV
--------------------------------------------------------------------------------
  Total lattice energy : 
    Primitive unit cell      =          49.45691556 eV
    Non-primitive unit cell  =          98.91383111 eV
--------------------------------------------------------------------------------
  Total lattice energy (in kJmol-1): 
    Primitive unit cell      =            4771.8363 kJ/(mole unit cells)
    Non-primitive unit cell  =            9543.6727 kJ/(mole unit cells)
--------------------------------------------------------------------------------


  Number of variables =        4

  Maximum number of calculations  =          1000
  Maximum Hessian update interval =            10
  Maximum step size               =   1.000000000
  Maximum parameter tolerance     =   0.000010000
  Maximum function  tolerance     =   0.000010000
  Maximum gradient  tolerance     =   0.001000000
  Maximum gradient  component     =   0.010000000

  Symmetry constrained optimisation

  Symmetry used for second derivatives

  Cell parameters to be optimised using strains

  Newton-Raphson optimiser to be used

  BFGS hessian update to be used

  Start of bulk optimisation :

  Cycle:      0 Energy:        49.456916  Gnorm:    191.556211  CPU:    0.010
  ** Hessian calculated **
  Cycle:      1 Energy:      -107.561797  Gnorm:      3.933700  CPU:    0.032
  ** Hessian calculated **
  Cycle:      2 Energy:      -107.864082  Gnorm:      0.986330  CPU:    0.045
  Cycle:      3 Energy:      -107.880526  Gnorm:      0.352052  CPU:    0.053
  Cycle:      4 Energy:      -107.880985  Gnorm:      0.125949  CPU:    0.062
  Cycle:      5 Energy:      -107.881004  Gnorm:      0.006617  CPU:    0.070


  **** Optimisation achieved ****


  Final energy =    -107.88100396 eV
  Final Gnorm  =       0.00034290

  Components of energy : 

--------------------------------------------------------------------------------
  Interatomic potentials     =          14.77550853 eV
  Monopole - monopole (real) =         -43.93646325 eV
  Monopole - monopole (recip)=         -78.72004925 eV
  Monopole - monopole (total)=        -122.65651249 eV
--------------------------------------------------------------------------------
  Total lattice energy : 
    Primitive unit cell      =        -107.88100396 eV
    Non-primitive unit cell  =        -215.76200793 eV
--------------------------------------------------------------------------------
  Total lattice energy (in kJmol-1): 
    Primitive unit cell      =          -10408.8678 kJ/(mole unit cells)
    Non-primitive unit cell  =          -20817.7355 kJ/(mole unit cells)
--------------------------------------------------------------------------------

  Final asymmetric unit coordinates :

--------------------------------------------------------------------------------
   No.  Atomic        x           y           z         Radius
        Label       (Frac)      (Frac)      (Frac)       (Angs) 
--------------------------------------------------------------------------------
     1  K     c     0.000000    0.500000    0.250000    0.000000
     2  Mn    c     0.000000    0.000000    0.000000    0.000000
     3  F     c     0.250001    0.750001    0.000000    0.000000
     4  F     c     0.000000    0.000000    0.250000    0.000000
     5  F     s     0.250001    0.750001    0.000000    0.000000
     6  F     s     0.000000    0.000000    0.250000    0.000000
--------------------------------------------------------------------------------

  Final Cartesian lattice vectors (Angstroms) :

       -2.708456    2.708456    3.830333
        2.708456   -2.708456    3.830333
        2.708456    2.708456   -3.830333


  Final cell parameters and derivatives :

--------------------------------------------------------------------------------
       a            5.416911 Angstrom     dE/de1(xx)    -0.000186 eV/strain
       b            5.416911 Angstrom     dE/de2(yy)     0.000000 eV/strain
       c            5.416911 Angstrom     dE/de3(zz)    -0.000150 eV/strain
       alpha      119.999982 Degrees      dE/de4(yz)     0.000000 eV/strain
       beta       119.999982 Degrees      dE/de5(xz)     0.000000 eV/strain
       gamma       90.000031 Degrees      dE/de6(xy)     0.000000 eV/strain
--------------------------------------------------------------------------------

  Primitive cell volume =           112.393229 Angs**3

  Density of cell =      4.463112 g/cm**3

  Non-primitive lattice parameters :

  a    =     5.416912  b   =     5.416912  c    =     7.660667
  alpha=    90.000000  beta=    90.000000  gamma=    90.000000

  Non-primitive cell volume =           224.786458 Angs**3


  Final internal derivatives :

--------------------------------------------------------------------------------
   No.  Atomic          a             b             c           Radius
        Label          (eV)          (eV)          (eV)        (eV/Angs)
--------------------------------------------------------------------------------
      1 K     c       0.000000      0.000000      0.000000      0.000000
      2 Mn    c       0.000000      0.000000      0.000000      0.000000
      3 F     c      -0.000363      0.000000      0.000000      0.000000
      4 F     c       0.000000      0.000000      0.000000      0.000000
      5 F     s       0.001301      0.000000      0.000000      0.000000
      6 F     s       0.000000      0.000000      0.000000      0.000000
--------------------------------------------------------------------------------
  Maximum abs         0.001301      0.000000      0.000000      0.000000
--------------------------------------------------------------------------------


  Born effective charge tensors : 

-------------------------------------------------------------------------------
  Atom             x           y             z
-------------------------------------------------------------------------------
   1 K     x       0.6815      0.0000      0.0000
           y       0.0000      0.6815      0.0000
           z       0.0000      0.0000      0.6815
-------------------------------------------------------------------------------
   2 Mn    x       2.0159      0.0000      0.0000
           y       0.0000      2.0159      0.0000
           z       0.0000      0.0000      2.0159
-------------------------------------------------------------------------------
   3 F     x      -0.9352      0.1081      0.0000
           y       0.1081     -0.9352      0.0000
           z       0.0000      0.0000     -0.8271
-------------------------------------------------------------------------------
   4 F     x      -0.8271      0.0000      0.0000
           y       0.0000     -0.8271      0.0000
           z       0.0000      0.0000     -1.0432
-------------------------------------------------------------------------------




  Elastic Constant Matrix: (Units=GPa)

-------------------------------------------------------------------------------
  Indices      1         2         3         4         5         6    
-------------------------------------------------------------------------------
       1    219.2320   74.9972   72.1176    0.0000    0.0000    0.0000
       2     74.9972  219.2320   72.1176    0.0000    0.0000    0.0000
       3     72.1176   72.1176  222.1124    0.0000    0.0000    0.0000
       4      0.0000    0.0000    0.0000   72.1174    0.0000    0.0000
       5      0.0000    0.0000    0.0000    0.0000   72.1174    0.0000
       6      0.0000    0.0000    0.0000    0.0000    0.0000   74.9971
-------------------------------------------------------------------------------


  Elastic Compliance Matrix: (Units=1/GPa)

-------------------------------------------------------------------------------
  Indices      1         2         3         4         5         6    
-------------------------------------------------------------------------------
       1    0.005488 -0.001446 -0.001312  0.000000  0.000000  0.000000
       2   -0.001446  0.005488 -0.001312  0.000000  0.000000  0.000000
       3   -0.001312 -0.001312  0.005354  0.000000  0.000000  0.000000
       4    0.000000  0.000000  0.000000  0.013866  0.000000  0.000000
       5    0.000000  0.000000  0.000000  0.000000  0.013866  0.000000
       6    0.000000  0.000000  0.000000  0.000000  0.000000  0.013334
-------------------------------------------------------------------------------

  Mechanical properties :

-------------------------------------------------------------------------------
  Convention :                    Reuss         Voigt         Hill
-------------------------------------------------------------------------------
  Bulk  Modulus (GPa)     =     122.11570     122.11570     122.11570
  Shear Modulus (GPa)     =      73.24237      73.26933      73.25585
-------------------------------------------------------------------------------
  Velocity S-wave (km/s)  =       4.05100       4.05175       4.05137
  Velocity P-wave (km/s)  =       7.01726       7.01783       7.01755
-------------------------------------------------------------------------------
  Compressibility (1/GPa) =    0.00818896
-------------------------------------------------------------------------------
  Stress axis :                     x             y             z
-------------------------------------------------------------------------------
  Youngs Moduli (GPa)     =     182.22878     182.22878     186.75941
-------------------------------------------------------------------------------
  Poissons Ratio (x)      =                     0.26342       0.24511
  Poissons Ratio (y)      =       0.26342                     0.24511
  Poissons Ratio (z)      =       0.23916       0.23916
-------------------------------------------------------------------------------


  Piezoelectric Strain Matrix: (Units=C/m**2)

-------------------------------------------------------------------------------
  Indices      1         2         3         4         5         6    
-------------------------------------------------------------------------------
       x     0.00000   0.00000   0.00000   0.00000   0.00000   0.00000
       y     0.00000   0.00000   0.00000   0.00000   0.00000   0.00000
       z     0.00000   0.00000   0.00000   0.00000   0.00000   0.00000
-------------------------------------------------------------------------------


  Piezoelectric Stress Matrix: (Units=10**-11 C/N)

-------------------------------------------------------------------------------
  Indices      1         2         3         4         5         6    
-------------------------------------------------------------------------------
       x     0.00000   0.00000   0.00000   0.00000   0.00000   0.00000
       y     0.00000   0.00000   0.00000   0.00000   0.00000   0.00000
       z     0.00000   0.00000   0.00000   0.00000   0.00000   0.00000
-------------------------------------------------------------------------------


  Static dielectric constant tensor : 

-------------------------------------------------------------------------------
              x         y         z
-------------------------------------------------------------------------------
       x     3.41609   0.00000   0.00000
       y     0.00000   3.41609   0.00000
       z     0.00000   0.00000   3.41608
--------------------------------------------------------------------------------

  High frequency dielectric constant tensor : 

-------------------------------------------------------------------------------
              x         y         z
-------------------------------------------------------------------------------
       x     1.69813   0.00000   0.00000
       y     0.00000   1.69813   0.00000
       z     0.00000   0.00000   1.69813
-------------------------------------------------------------------------------

  Static refractive indices : 

-------------------------------------------------------------------------------
    1 =    1.84826      2 =    1.84827      3 =    1.84827
-------------------------------------------------------------------------------

  High frequency refractive indices : 

-------------------------------------------------------------------------------
    1 =    1.30312      2 =    1.30312      3 =    1.30312
-------------------------------------------------------------------------------


  Time to end of optimisation =       0.0861 seconds


  Peak dynamic memory used =       0.59 MB 


  Timing analysis for GULP :

--------------------------------------------------------------------------------
  Task / Subroutine                                          Time (Seconds)
--------------------------------------------------------------------------------
  Calculation of reciprocal space energy and derivatives          0.0011
  Calculation of reciprocal space energy using symmetry           0.0030
  Calculation of real space energy and derivatives                0.0067
  Calculation of real space energy using symmetry                 0.0712
  Symmetry generation of equivalent positions                     0.0004
--------------------------------------------------------------------------------
  Total CPU time                                                  0.0861
--------------------------------------------------------------------------------


  CIF file written as perov.cif                                               


  Job Finished at 14:51.22 22nd February   2017                               

