********************************************************************************
*                       GENERAL UTILITY LATTICE PROGRAM                        *
*                                 Julian Gale                                  *
*                      Nanochemistry Research Institute                        *
*                           Department of Chemistry                            *
*                    Curtin University, Western Australia                      *
********************************************************************************
* Version = 4.3.2 * Last modified =  3rd March 2015                            *
********************************************************************************
*  optimise     - perform optimisation run                                     *
*  conp         - constant pressure calculation                                *
*  property     - calculate properties for final geometry                      *
********************************************************************************

  Job Started  at 14:51.18 22nd February   2017                               

  Number of CPUs =     1


  Total number of configurations input =   1

********************************************************************************
*  Input for Configuration =   1                                               *
********************************************************************************

  Formula = K2Mn2F6                                                     

  Number of irreducible atoms/shells =       6


  Total number atoms/shells =      16

  Dimensionality = 3               :  Bulk   


  Symmetry :

  Crystal family                   :  Tetragonal  
  Crystal class  (Groth - 1921)    :  Ditetragonal Dipyramidal             

  Space group (centrosymmetric)    :  I 4/M C M       

  Patterson group                  :  I 4/m m m

  Cartesian lattice vectors (Angstroms) :

       -2.100000    2.100000    2.100000
        2.100000   -2.100000    2.100000
        2.100000    2.100000   -2.100000

  Primitive cell parameters :            Full cell parameters :

  a =   3.6373    alpha = 109.4712       a =   4.2000    alpha =  90.0000
  b =   3.6373    beta  = 109.4712       b =   4.2000    beta  =  90.0000
  c =   3.6373    gamma = 109.4712       c =   4.2000    gamma =  90.0000

  Initial volumes (Angstroms**3):

  Primitive cell =          37.044000    Full cell =          74.088000

  Temperature of configuration =  0.000     K 

  Pressure of configuration =         0.000 GPa 

  Fractional coordinates of asymmetric unit :

--------------------------------------------------------------------------------
   No.  Atomic       x           y          z         Charge      Occupancy
        Label      (Frac)      (Frac)     (Frac)        (e)         (Frac)  
--------------------------------------------------------------------------------
      1 K     c    0.000000    0.500000    0.250000     0.60000    1.000000    
      2 Mn    c    0.000000    0.000000    0.000000     1.70000    1.000000    
      3 F     c    0.240600 *  0.740600    0.000000     0.37800    1.000000    
      4 F     c    0.000000    0.000000    0.250000     0.37800    1.000000    
      5 F     s    0.240600 *  0.740600    0.000000    -1.14467    1.000000    
      6 F     s    0.000000    0.000000    0.250000    -1.14467    1.000000    
--------------------------------------------------------------------------------


  Constraints : 

--------------------------------------------------------------------------------
  Constraint no.      Unconstrained     Constrained    Coefficient    Offset
                         Variable         Variable
--------------------------------------------------------------------------------
           1              Strain 1        Strain 2       1.00000      0.0000
           2                 3 x             3 y         1.00000      0.5000
           3                 5 x             5 y         1.00000      0.5000
--------------------------------------------------------------------------------


********************************************************************************
*  General input information                                                   *
********************************************************************************

  Species output for all configurations : 

--------------------------------------------------------------------------------
  Species    Type    Atomic    Atomic    Charge       Radii (Angs)     Library
                     Number     Mass       (e)     Cova   Ionic  VDW   Symbol
--------------------------------------------------------------------------------
    K        Core       19      39.10   0.600000   1.330  0.000  2.800          
    Mn       Core       25      54.94   1.700000   1.350  0.000  2.010          
    F        Core        9      19.00   0.378000   0.710  0.000  1.300          
    F        Shell       9       0.00  -1.144667   0.710  0.000  1.300          
--------------------------------------------------------------------------------


  Lattice summation method               =    Ewald          (3-D)
                                         =    Parry          (2-D)
                                         =    Saunders et al (1-D)
  Accuracy factor for lattice sums       =   12.000


  Time limit = Infinity

  Maximum range for interatomic potentials =    100000.000000 Angstroms

  General interatomic potentials :

--------------------------------------------------------------------------------
Atom  Types   Potential         A         B         C         D     Cutoffs(Ang)
  1     2                                                            Min    Max 
--------------------------------------------------------------------------------
K    c K    c Buckingham    0.219E+04 0.192      0.00      0.00     0.000 10.000
Mn   c F    s Buckingham    0.148E+04 0.266      0.00      0.00     0.000 10.000
F    s F    s Buckingham     912.     0.271      40.0      0.00     0.000 10.000
K    c F    s Buckingham    0.352E+04 0.267      0.00      0.00     0.000 10.000
F    c F    s Spring (c-s)   16.8      0.00      0.00      0.00     0.000  0.800
--------------------------------------------------------------------------------

********************************************************************************
*  Output for configuration   1                                                *
********************************************************************************


  Components of energy : 

--------------------------------------------------------------------------------
  Interatomic potentials     =         232.40796252 eV
  Monopole - monopole (real) =         -33.06414943 eV
  Monopole - monopole (recip)=         -54.17317514 eV
  Monopole - monopole (total)=         -87.23732457 eV
--------------------------------------------------------------------------------
  Total lattice energy : 
    Primitive unit cell      =         145.17063796 eV
    Non-primitive unit cell  =         290.34127591 eV
--------------------------------------------------------------------------------
  Total lattice energy (in kJmol-1): 
    Primitive unit cell      =           14006.7474 kJ/(mole unit cells)
    Non-primitive unit cell  =           28013.4949 kJ/(mole unit cells)
--------------------------------------------------------------------------------


  Number of variables =        4

  Maximum number of calculations  =          1000
  Maximum Hessian update interval =            10
  Maximum step size               =   1.000000000
  Maximum parameter tolerance     =   0.000010000
  Maximum function  tolerance     =   0.000010000
  Maximum gradient  tolerance     =   0.001000000
  Maximum gradient  component     =   0.010000000

  Symmetry constrained optimisation

  Symmetry used for second derivatives

  Cell parameters to be optimised using strains

  Newton-Raphson optimiser to be used

  BFGS hessian update to be used

  Start of bulk optimisation :

  Cycle:      0 Energy:       145.170638  Gnorm:    208.176203  CPU:    0.010
  ** Hessian calculated **
  Cycle:      1 Energy:       -45.550473  Gnorm:      6.772809  CPU:    0.031
  ** Hessian calculated **
  Cycle:      2 Energy:       -46.728329  Gnorm:      2.231454  CPU:    0.043
  Cycle:      3 Energy:       -46.769823  Gnorm:      0.557698  CPU:    0.053
  Cycle:      4 Energy:       -46.775378  Gnorm:      0.195860  CPU:    0.060
  Cycle:      5 Energy:       -46.777547  Gnorm:      0.093183  CPU:    0.068
  Cycle:      6 Energy:       -46.777827  Gnorm:      0.032242  CPU:    0.075
  Cycle:      7 Energy:       -46.777832  Gnorm:      0.001635  CPU:    0.082


  **** Optimisation achieved ****


  Final energy =     -46.77783157 eV
  Final Gnorm  =       0.00010063

  Components of energy : 

--------------------------------------------------------------------------------
  Interatomic potentials     =           5.58697077 eV
  Monopole - monopole (real) =          -7.10927186 eV
  Monopole - monopole (recip)=         -45.25553047 eV
  Monopole - monopole (total)=         -52.36480233 eV
--------------------------------------------------------------------------------
  Total lattice energy : 
    Primitive unit cell      =         -46.77783157 eV
    Non-primitive unit cell  =         -93.55566314 eV
--------------------------------------------------------------------------------
  Total lattice energy (in kJmol-1): 
    Primitive unit cell      =           -4513.3457 kJ/(mole unit cells)
    Non-primitive unit cell  =           -9026.6914 kJ/(mole unit cells)
--------------------------------------------------------------------------------

  Final asymmetric unit coordinates :

--------------------------------------------------------------------------------
   No.  Atomic        x           y           z         Radius
        Label       (Frac)      (Frac)      (Frac)       (Angs) 
--------------------------------------------------------------------------------
     1  K     c     0.000000    0.500000    0.250000    0.000000
     2  Mn    c     0.000000    0.000000    0.000000    0.000000
     3  F     c     0.250003    0.750003    0.000000    0.000000
     4  F     c     0.000000    0.000000    0.250000    0.000000
     5  F     s     0.250003    0.750003    0.000000    0.000000
     6  F     s     0.000000    0.000000    0.250000    0.000000
--------------------------------------------------------------------------------

  Final Cartesian lattice vectors (Angstroms) :

       -3.024943    3.024943    4.277927
        3.024943   -3.024943    4.277927
        3.024943    3.024943   -4.277927


  Final cell parameters and derivatives :

--------------------------------------------------------------------------------
       a            6.049894 Angstrom     dE/de1(xx)    -0.000058 eV/strain
       b            6.049894 Angstrom     dE/de2(yy)     0.000000 eV/strain
       c            6.049894 Angstrom     dE/de3(zz)     0.000170 eV/strain
       alpha      120.000096 Degrees      dE/de4(yz)     0.000000 eV/strain
       beta       120.000096 Degrees      dE/de5(xz)     0.000000 eV/strain
       gamma       89.999834 Degrees      dE/de6(xy)     0.000000 eV/strain
--------------------------------------------------------------------------------

  Primitive cell volume =           156.576896 Angs**3

  Density of cell =      3.203689 g/cm**3

  Non-primitive lattice parameters :

  a    =     6.049885  b   =     6.049885  c    =     8.555855
  alpha=    90.000000  beta=    90.000000  gamma=    90.000000

  Non-primitive cell volume =           313.153792 Angs**3


  Final internal derivatives :

--------------------------------------------------------------------------------
   No.  Atomic          a             b             c           Radius
        Label          (eV)          (eV)          (eV)        (eV/Angs)
--------------------------------------------------------------------------------
      1 K     c       0.000000      0.000000      0.000000      0.000000
      2 Mn    c       0.000000      0.000000      0.000000      0.000000
      3 F     c       0.000203      0.000000      0.000000      0.000000
      4 F     c       0.000000      0.000000      0.000000      0.000000
      5 F     s       0.000298      0.000000      0.000000      0.000000
      6 F     s       0.000000      0.000000      0.000000      0.000000
--------------------------------------------------------------------------------
  Maximum abs         0.000298      0.000000      0.000000      0.000000
--------------------------------------------------------------------------------


  Born effective charge tensors : 

-------------------------------------------------------------------------------
  Atom             x           y             z
-------------------------------------------------------------------------------
   1 K     x       0.5745      0.0000      0.0000
           y       0.0000      0.5745      0.0000
           z       0.0000      0.0000      0.5745
-------------------------------------------------------------------------------
   2 Mn    x       1.3344      0.0000      0.0000
           y       0.0000      1.3344      0.0000
           z       0.0000      0.0000      1.3345
-------------------------------------------------------------------------------
   3 F     x      -0.6376      0.0040      0.0000
           y       0.0040     -0.6376      0.0000
           z       0.0000      0.0000     -0.6337
-------------------------------------------------------------------------------
   4 F     x      -0.6336      0.0000      0.0000
           y       0.0000     -0.6336      0.0000
           z       0.0000      0.0000     -0.6416
-------------------------------------------------------------------------------




  Elastic Constant Matrix: (Units=GPa)

-------------------------------------------------------------------------------
  Indices      1         2         3         4         5         6    
-------------------------------------------------------------------------------
       1     73.5154   35.1593   19.1780    0.0000    0.0000    0.0000
       2     35.1593   73.5154   19.1780    0.0000    0.0000    0.0000
       3     19.1780   19.1780   89.4948    0.0000    0.0000    0.0000
       4      0.0000    0.0000    0.0000   19.1781    0.0000    0.0000
       5      0.0000    0.0000    0.0000    0.0000   19.1781    0.0000
       6      0.0000    0.0000    0.0000    0.0000    0.0000   35.1593
-------------------------------------------------------------------------------


  Elastic Compliance Matrix: (Units=1/GPa)

-------------------------------------------------------------------------------
  Indices      1         2         3         4         5         6    
-------------------------------------------------------------------------------
       1    0.018013 -0.008058 -0.002133  0.000000  0.000000  0.000000
       2   -0.008058  0.018013 -0.002133  0.000000  0.000000  0.000000
       3   -0.002133 -0.002133  0.012088  0.000000  0.000000  0.000000
       4    0.000000  0.000000  0.000000  0.052143  0.000000  0.000000
       5    0.000000  0.000000  0.000000  0.000000  0.052143  0.000000
       6    0.000000  0.000000  0.000000  0.000000  0.000000  0.028442
-------------------------------------------------------------------------------

  Mechanical properties :

-------------------------------------------------------------------------------
  Convention :                    Reuss         Voigt         Hill
-------------------------------------------------------------------------------
  Bulk  Modulus (GPa)     =      42.61736      42.61736      42.61736
  Shear Modulus (GPa)     =      23.43972      25.57044      24.50508
-------------------------------------------------------------------------------
  Velocity S-wave (km/s)  =       2.70490       2.82517       2.76569
  Velocity P-wave (km/s)  =       4.80186       4.89333       4.84781
-------------------------------------------------------------------------------
  Compressibility (1/GPa) =    0.02346462
-------------------------------------------------------------------------------
  Stress axis :                     x             y             z
-------------------------------------------------------------------------------
  Youngs Moduli (GPa)     =      55.51522      55.51522      82.72604
-------------------------------------------------------------------------------
  Poissons Ratio (x)      =                     0.44736       0.17647
  Poissons Ratio (y)      =       0.44736                     0.17647
  Poissons Ratio (z)      =       0.11843       0.11843
-------------------------------------------------------------------------------


  Piezoelectric Strain Matrix: (Units=C/m**2)

-------------------------------------------------------------------------------
  Indices      1         2         3         4         5         6    
-------------------------------------------------------------------------------
       x     0.00000   0.00000   0.00000   0.00000   0.00000   0.00000
       y     0.00000   0.00000   0.00000   0.00000   0.00000   0.00000
       z     0.00000   0.00000   0.00000   0.00000   0.00000   0.00000
-------------------------------------------------------------------------------


  Piezoelectric Stress Matrix: (Units=10**-11 C/N)

-------------------------------------------------------------------------------
  Indices      1         2         3         4         5         6    
-------------------------------------------------------------------------------
       x     0.00000   0.00000   0.00000   0.00000   0.00000   0.00000
       y     0.00000   0.00000   0.00000   0.00000   0.00000   0.00000
       z     0.00000   0.00000   0.00000   0.00000   0.00000   0.00000
-------------------------------------------------------------------------------


  Static dielectric constant tensor : 

-------------------------------------------------------------------------------
              x         y         z
-------------------------------------------------------------------------------
       x     3.26727   0.00000   0.00000
       y     0.00000   3.26727   0.00000
       z     0.00000   0.00000   3.26733
--------------------------------------------------------------------------------

  High frequency dielectric constant tensor : 

-------------------------------------------------------------------------------
              x         y         z
-------------------------------------------------------------------------------
       x     1.51011   0.00000   0.00000
       y     0.00000   1.51011   0.00000
       z     0.00000   0.00000   1.51008
-------------------------------------------------------------------------------

  Static refractive indices : 

-------------------------------------------------------------------------------
    1 =    1.80756      2 =    1.80756      3 =    1.80757
-------------------------------------------------------------------------------

  High frequency refractive indices : 

-------------------------------------------------------------------------------
    1 =    1.22885      2 =    1.22887      3 =    1.22887
-------------------------------------------------------------------------------


  Time to end of optimisation =       0.0981 seconds


  Peak dynamic memory used =       0.59 MB 


  Timing analysis for GULP :

--------------------------------------------------------------------------------
  Task / Subroutine                                          Time (Seconds)
--------------------------------------------------------------------------------
  Calculation of reciprocal space energy and derivatives          0.0012
  Calculation of reciprocal space energy using symmetry           0.0034
  Calculation of real space energy and derivatives                0.0065
  Calculation of real space energy using symmetry                 0.0833
  Symmetry generation of equivalent positions                     0.0004
--------------------------------------------------------------------------------
  Total CPU time                                                  0.0981
--------------------------------------------------------------------------------


  CIF file written as perov.cif                                               


  Job Finished at 14:51.18 22nd February   2017                               

