********************************************************************************
*                       GENERAL UTILITY LATTICE PROGRAM                        *
*                                 Julian Gale                                  *
*                      Nanochemistry Research Institute                        *
*                           Department of Chemistry                            *
*                    Curtin University, Western Australia                      *
********************************************************************************
* Version = 4.3.2 * Last modified =  3rd March 2015                            *
********************************************************************************
*  optimise     - perform optimisation run                                     *
*  cell_only    - only optimise unit cell                                      *
*  property     - calculate properties for final geometry                      *
********************************************************************************

  Job Started  at 09:42.59  6th April      2017                               

  Number of CPUs =     1


  Total number of configurations input =   1

********************************************************************************
*  Input for Configuration =   1                                               *
********************************************************************************

  Formula = K4Ca4F12                                                    

  Number of irreducible atoms/shells =       6


  Total number atoms/shells =      32

  Dimensionality = 3               :  Bulk   


  Symmetry :

  Crystal family                   :  Orthorhombic
  Crystal class  (Groth - 1921)    :  Orthorhombic Bipyramidal             

  Space group (centrosymmetric)    :  P N M A         

  Patterson group                  :  P m m m  

  Cartesian lattice vectors (Angstroms) :

        6.223500    0.000000    0.000000
        0.000000    8.710300    0.000000
        0.000000    0.000000    6.118000

  Cell parameters (Angstroms/Degrees):

  a =       6.2235    alpha =  90.0000
  b =       8.7103    beta  =  90.0000
  c =       6.1180    gamma =  90.0000

  Initial cell volume =         331.647921 Angs**3

  Temperature of configuration =  0.000     K 

  Pressure of configuration =         0.000 GPa 

  Fractional coordinates of asymmetric unit :

--------------------------------------------------------------------------------
   No.  Atomic       x           y          z         Charge      Occupancy
        Label      (Frac)      (Frac)     (Frac)        (e)         (Frac)  
--------------------------------------------------------------------------------
      1 K     c    0.042000    0.250000    0.490600     1.20000    1.000000    
      2 Ca    c    0.000000    0.000000    0.000000     2.20000    1.000000    
      3 F     c    0.471500    0.250000    0.581200     0.37800    1.000000    
      4 F     c    0.291600    0.040400    0.206800     0.37800    1.000000    
      5 F     s    0.471500    0.250000    0.581200    -1.51133    1.000000    
      6 F     s    0.291600    0.040400    0.206800    -1.51133    1.000000    
--------------------------------------------------------------------------------



********************************************************************************
*  General input information                                                   *
********************************************************************************

  Species output for all configurations : 

--------------------------------------------------------------------------------
  Species    Type    Atomic    Atomic    Charge       Radii (Angs)     Library
                     Number     Mass       (e)     Cova   Ionic  VDW   Symbol
--------------------------------------------------------------------------------
    K        Core       19      39.10   1.200000   1.330  0.000  2.800          
    Ca       Core       20      40.08   2.200000   0.990  0.000  2.750          
    F        Core        9      19.00   0.378000   0.710  0.000  1.300          
    F        Shell       9       0.00  -1.511333   0.710  0.000  1.300          
--------------------------------------------------------------------------------


  Lattice summation method               =    Ewald          (3-D)
                                         =    Parry          (2-D)
                                         =    Saunders et al (1-D)
  Accuracy factor for lattice sums       =   12.000


  Time limit = Infinity

  Maximum range for interatomic potentials =    100000.000000 Angstroms

  General interatomic potentials :

--------------------------------------------------------------------------------
Atom  Types   Potential         A         B         C         D     Cutoffs(Ang)
  1     2                                                            Min    Max 
--------------------------------------------------------------------------------
K    c K    c Buckingham    0.219E+04 0.192      0.00      0.00     0.000 30.000
Ca   c F    s Buckingham    0.148E+04 0.266      0.00      0.00     0.000 30.000
F    s F    s Buckingham     912.     0.271      13.8      0.00     0.000 30.000
K    c F    s Buckingham    0.352E+04 0.267      0.00      0.00     0.000 30.000
F    c F    s Spring (c-s)   29.3      0.00      0.00      0.00     0.000  0.800
--------------------------------------------------------------------------------

********************************************************************************
*  Output for configuration   1                                                *
********************************************************************************


  Components of energy : 

--------------------------------------------------------------------------------
  Interatomic potentials     =          10.64736838 eV
  Monopole - monopole (real) =         -92.00735563 eV
  Monopole - monopole (recip)=        -112.50859159 eV
  Monopole - monopole (total)=        -204.51594721 eV
--------------------------------------------------------------------------------
  Total lattice energy       =        -193.86857883 eV
--------------------------------------------------------------------------------
  Total lattice energy       =          -18705.3543 kJ/(mole unit cells)
--------------------------------------------------------------------------------


  Number of variables =        3

  Maximum number of calculations  =          1000
  Maximum Hessian update interval =            10
  Maximum step size               =   1.000000000
  Maximum parameter tolerance     =   0.000010000
  Maximum function  tolerance     =   0.000010000
  Maximum gradient  tolerance     =   0.001000000
  Maximum gradient  component     =   0.010000000

  Symmetry constrained optimisation

  Symmetry used for second derivatives

  Cell parameters to be optimised using strains

  Newton-Raphson optimiser to be used

  BFGS hessian update to be used

  Start of bulk optimisation :

  Cycle:      0 Energy:      -193.868579  Gnorm:     20.225020  CPU:    0.014
  ** Hessian calculated **
  Cycle:      1 Energy:      -199.042967  Gnorm:      9.856537  CPU:    0.030
  Cycle:      2 Energy:      -200.111862  Gnorm:      0.921365  CPU:    0.047
  Cycle:      3 Energy:      -200.123983  Gnorm:      0.557855  CPU:    0.067
  Cycle:      4 Energy:      -200.126806  Gnorm:      0.007491  CPU:    0.084


  **** Optimisation achieved ****


  Final energy =    -200.12680718 eV
  Final Gnorm  =       0.00038298

  Components of energy : 

--------------------------------------------------------------------------------
  Interatomic potentials     =          26.89226417 eV
  Monopole - monopole (real) =        -102.12661928 eV
  Monopole - monopole (recip)=        -124.89245208 eV
  Monopole - monopole (total)=        -227.01907135 eV
--------------------------------------------------------------------------------
  Total lattice energy       =        -200.12680718 eV
--------------------------------------------------------------------------------
  Total lattice energy       =          -19309.1777 kJ/(mole unit cells)
--------------------------------------------------------------------------------

  Final asymmetric unit coordinates :

--------------------------------------------------------------------------------
   No.  Atomic        x           y           z         Radius
        Label       (Frac)      (Frac)      (Frac)       (Angs) 
--------------------------------------------------------------------------------
     1  K     c     0.042000    0.250000    0.490600    0.000000
     2  Ca    c     0.000000    0.000000    0.000000    0.000000
     3  F     c     0.471500    0.250000    0.581200    0.000000
     4  F     c     0.291600    0.040400    0.206800    0.000000
     5  F     s     0.471500    0.250000    0.581200    0.000000
     6  F     s     0.291600    0.040400    0.206800    0.000000
--------------------------------------------------------------------------------

  Final Cartesian lattice vectors (Angstroms) :

        5.626719    0.000000    0.000000
        0.000000    7.802937    0.000000
        0.000000    0.000000    5.522177


  Final cell parameters and derivatives :

--------------------------------------------------------------------------------
       a            5.626719 Angstrom     dE/de1(xx)    -0.000889 eV/strain
       b            7.802937 Angstrom     dE/de2(yy)    -0.000030 eV/strain
       c            5.522177 Angstrom     dE/de3(zz)     0.000727 eV/strain
       alpha       90.000000 Degrees      dE/de4(yz)     0.000000 eV/strain
       beta        90.000000 Degrees      dE/de5(xz)     0.000000 eV/strain
       gamma       90.000000 Degrees      dE/de6(xy)     0.000000 eV/strain
--------------------------------------------------------------------------------

  Primitive cell volume =           242.450840 Angs**3

  Density of cell =      3.730831 g/cm**3

  Non-primitive cell volume =           242.450840 Angs**3


  Final internal derivatives :

--------------------------------------------------------------------------------
   No.  Atomic          a             b             c           Radius
        Label          (eV)          (eV)          (eV)        (eV/Angs)
--------------------------------------------------------------------------------
      1 K     c       0.000000      0.000000      0.000000      0.000000
      2 Ca    c       0.000000      0.000000      0.000000      0.000000
      3 F     c       0.000000      0.000000      0.000000      0.000000
      4 F     c       0.000000      0.000000      0.000000      0.000000
      5 F     s       0.000000      0.000000      0.000000      0.000000
      6 F     s       0.000000      0.000000      0.000000      0.000000
--------------------------------------------------------------------------------
  Maximum abs         0.000000      0.000000      0.000000      0.000000
--------------------------------------------------------------------------------


  Born effective charge tensors : 

-------------------------------------------------------------------------------
  Atom             x           y             z
-------------------------------------------------------------------------------
   1 K     x       1.0407      0.0000     -0.0528
           y       0.0000      1.0953      0.0000
           z      -0.0544      0.0000      1.0284
-------------------------------------------------------------------------------
   2 Ca    x       1.9744      0.0135     -0.0349
           y      -0.0026      1.9311     -0.0239
           z       0.0120      0.0350      1.9753
-------------------------------------------------------------------------------
   3 F     x      -0.9130      0.0000      0.0265
           y       0.0000     -1.1630      0.0000
           z       0.0460      0.0000     -0.8874
-------------------------------------------------------------------------------
   4 F     x      -1.0510      0.0257     -0.1318
           y       0.0326     -0.9317     -0.0250
           z      -0.1293     -0.0247     -1.0582
-------------------------------------------------------------------------------




  Elastic Constant Matrix: (Units=GPa)

-------------------------------------------------------------------------------
  Indices      1         2         3         4         5         6    
-------------------------------------------------------------------------------
       1    164.6200   74.0381   67.5110    0.0000    0.0000    0.0000
       2     74.0381  166.0284   81.9072    0.0000    0.0000    0.0000
       3     67.5110   81.9072  176.6148    0.0000    0.0000    0.0000
       4      0.0000    0.0000    0.0000   60.2116    0.0000    0.0000
       5      0.0000    0.0000    0.0000    0.0000   39.0807    0.0000
       6      0.0000    0.0000    0.0000    0.0000    0.0000   68.8052
-------------------------------------------------------------------------------


  Elastic Compliance Matrix: (Units=1/GPa)

-------------------------------------------------------------------------------
  Indices      1         2         3         4         5         6    
-------------------------------------------------------------------------------
       1    0.008029 -0.002679 -0.001826  0.000000  0.000000  0.000000
       2   -0.002679  0.008704 -0.003012  0.000000  0.000000  0.000000
       3   -0.001826 -0.003012  0.007757  0.000000  0.000000  0.000000
       4    0.000000  0.000000  0.000000  0.016608  0.000000  0.000000
       5    0.000000  0.000000  0.000000  0.000000  0.025588  0.000000
       6    0.000000  0.000000  0.000000  0.000000  0.000000  0.014534
-------------------------------------------------------------------------------

  Mechanical properties :

-------------------------------------------------------------------------------
  Convention :                    Reuss         Voigt         Hill
-------------------------------------------------------------------------------
  Bulk  Modulus (GPa)     =     105.77904     106.01953     105.89928
  Shear Modulus (GPa)     =      50.29825      52.53998      51.41911
-------------------------------------------------------------------------------
  Velocity S-wave (km/s)  =       3.67175       3.75269       3.71244
  Velocity P-wave (km/s)  =       6.80650       6.86979       6.83822
-------------------------------------------------------------------------------
  Compressibility (1/GPa) =    0.00945367
-------------------------------------------------------------------------------
  Stress axis :                     x             y             z
-------------------------------------------------------------------------------
  Youngs Moduli (GPa)     =     124.55489     114.89033     128.91191
-------------------------------------------------------------------------------
  Poissons Ratio (x)      =                     0.30782       0.23545
  Poissons Ratio (y)      =       0.33371                     0.38834
  Poissons Ratio (z)      =       0.22749       0.34610
-------------------------------------------------------------------------------


  Piezoelectric Strain Matrix: (Units=C/m**2)

-------------------------------------------------------------------------------
  Indices      1         2         3         4         5         6    
-------------------------------------------------------------------------------
       x     0.00000   0.00000   0.00000   0.00000   0.00000   0.00000
       y     0.00000   0.00000   0.00000   0.00000   0.00000   0.00000
       z     0.00000   0.00000   0.00000   0.00000   0.00000   0.00000
-------------------------------------------------------------------------------


  Piezoelectric Stress Matrix: (Units=10**-11 C/N)

-------------------------------------------------------------------------------
  Indices      1         2         3         4         5         6    
-------------------------------------------------------------------------------
       x     0.00000   0.00000   0.00000   0.00000   0.00000   0.00000
       y     0.00000   0.00000   0.00000   0.00000   0.00000   0.00000
       z     0.00000   0.00000   0.00000   0.00000   0.00000   0.00000
-------------------------------------------------------------------------------


  Static dielectric constant tensor : 

-------------------------------------------------------------------------------
              x         y         z
-------------------------------------------------------------------------------
       x     4.46245   0.00000   0.00000
       y     0.00000   4.51552   0.00000
       z     0.00000   0.00000   4.24071
--------------------------------------------------------------------------------

  High frequency dielectric constant tensor : 

-------------------------------------------------------------------------------
              x         y         z
-------------------------------------------------------------------------------
       x     1.68024   0.00000   0.00000
       y     0.00000   1.68256   0.00000
       z     0.00000   0.00000   1.67766
-------------------------------------------------------------------------------

  Static refractive indices : 

-------------------------------------------------------------------------------
    1 =    2.05930      2 =    2.11245      3 =    2.12498
-------------------------------------------------------------------------------

  High frequency refractive indices : 

-------------------------------------------------------------------------------
    1 =    1.29525      2 =    1.29624      3 =    1.29714
-------------------------------------------------------------------------------


  Time to end of optimisation =       0.1508 seconds


  Peak dynamic memory used =       0.73 MB 


  Timing analysis for GULP :

--------------------------------------------------------------------------------
  Task / Subroutine                                          Time (Seconds)
--------------------------------------------------------------------------------
  Calculation of reciprocal space energy and derivatives          0.0026
  Calculation of reciprocal space energy using symmetry           0.0044
  Calculation of real space energy and derivatives                0.0461
  Calculation of real space energy using symmetry                 0.0933
  Symmetry generation of equivalent positions                     0.0004
--------------------------------------------------------------------------------
  Total CPU time                                                  0.1509
--------------------------------------------------------------------------------


  CIF file written as perov.cif                                               


  Job Finished at 09:42.59  6th April      2017                               

