********************************************************************************
*                       GENERAL UTILITY LATTICE PROGRAM                        *
*                                 Julian Gale                                  *
*                      Nanochemistry Research Institute                        *
*                           Department of Chemistry                            *
*                    Curtin University, Western Australia                      *
********************************************************************************
* Version = 4.3.2 * Last modified =  3rd March 2015                            *
********************************************************************************
*  optimise     - perform optimisation run                                     *
*  cell_only    - only optimise unit cell                                      *
*  property     - calculate properties for final geometry                      *
********************************************************************************

  Job Started  at 09:43.03  6th April      2017                               

  Number of CPUs =     1


  Total number of configurations input =   1

********************************************************************************
*  Input for Configuration =   1                                               *
********************************************************************************

  Formula = K4Ca4F12                                                    

  Number of irreducible atoms/shells =       6


  Total number atoms/shells =      32

  Dimensionality = 3               :  Bulk   


  Symmetry :

  Crystal family                   :  Orthorhombic
  Crystal class  (Groth - 1921)    :  Orthorhombic Bipyramidal             

  Space group (centrosymmetric)    :  P N M A         

  Patterson group                  :  P m m m  

  Cartesian lattice vectors (Angstroms) :

        6.223500    0.000000    0.000000
        0.000000    8.710300    0.000000
        0.000000    0.000000    6.118000

  Cell parameters (Angstroms/Degrees):

  a =       6.2235    alpha =  90.0000
  b =       8.7103    beta  =  90.0000
  c =       6.1180    gamma =  90.0000

  Initial cell volume =         331.647921 Angs**3

  Temperature of configuration =  0.000     K 

  Pressure of configuration =         0.000 GPa 

  Fractional coordinates of asymmetric unit :

--------------------------------------------------------------------------------
   No.  Atomic       x           y          z         Charge      Occupancy
        Label      (Frac)      (Frac)     (Frac)        (e)         (Frac)  
--------------------------------------------------------------------------------
      1 K     c    0.042000    0.250000    0.490600     1.40000    1.000000    
      2 Ca    c    0.000000    0.000000    0.000000     2.40000    1.000000    
      3 F     c    0.471500    0.250000    0.581200     0.37800    1.000000    
      4 F     c    0.291600    0.040400    0.206800     0.37800    1.000000    
      5 F     s    0.471500    0.250000    0.581200    -1.64467    1.000000    
      6 F     s    0.291600    0.040400    0.206800    -1.64467    1.000000    
--------------------------------------------------------------------------------



********************************************************************************
*  General input information                                                   *
********************************************************************************

  Species output for all configurations : 

--------------------------------------------------------------------------------
  Species    Type    Atomic    Atomic    Charge       Radii (Angs)     Library
                     Number     Mass       (e)     Cova   Ionic  VDW   Symbol
--------------------------------------------------------------------------------
    K        Core       19      39.10   1.400000   1.330  0.000  2.800          
    Ca       Core       20      40.08   2.400000   0.990  0.000  2.750          
    F        Core        9      19.00   0.378000   0.710  0.000  1.300          
    F        Shell       9       0.00  -1.644667   0.710  0.000  1.300          
--------------------------------------------------------------------------------


  Lattice summation method               =    Ewald          (3-D)
                                         =    Parry          (2-D)
                                         =    Saunders et al (1-D)
  Accuracy factor for lattice sums       =   12.000


  Time limit = Infinity

  Maximum range for interatomic potentials =    100000.000000 Angstroms

  General interatomic potentials :

--------------------------------------------------------------------------------
Atom  Types   Potential         A         B         C         D     Cutoffs(Ang)
  1     2                                                            Min    Max 
--------------------------------------------------------------------------------
K    c K    c Buckingham    0.219E+04 0.192      0.00      0.00     0.000 30.000
Ca   c F    s Buckingham    0.148E+04 0.266      0.00      0.00     0.000 30.000
F    s F    s Buckingham     912.     0.271      13.8      0.00     0.000 30.000
K    c F    s Buckingham    0.352E+04 0.267      0.00      0.00     0.000 30.000
F    c F    s Spring (c-s)   34.7      0.00      0.00      0.00     0.000  0.800
--------------------------------------------------------------------------------

********************************************************************************
*  Output for configuration   1                                                *
********************************************************************************


  Components of energy : 

--------------------------------------------------------------------------------
  Interatomic potentials     =          10.64736838 eV
  Monopole - monopole (real) =        -113.59125048 eV
  Monopole - monopole (recip)=        -139.15986318 eV
  Monopole - monopole (total)=        -252.75111367 eV
--------------------------------------------------------------------------------
  Total lattice energy       =        -242.10374528 eV
--------------------------------------------------------------------------------
  Total lattice energy       =          -23359.3105 kJ/(mole unit cells)
--------------------------------------------------------------------------------


  Number of variables =        3

  Maximum number of calculations  =          1000
  Maximum Hessian update interval =            10
  Maximum step size               =   1.000000000
  Maximum parameter tolerance     =   0.000010000
  Maximum function  tolerance     =   0.000010000
  Maximum gradient  tolerance     =   0.001000000
  Maximum gradient  component     =   0.010000000

  Symmetry constrained optimisation

  Symmetry used for second derivatives

  Cell parameters to be optimised using strains

  Newton-Raphson optimiser to be used

  BFGS hessian update to be used

  Start of bulk optimisation :

  Cycle:      0 Energy:      -242.103745  Gnorm:     29.509089  CPU:    0.014
  ** Hessian calculated **
  Cycle:      1 Energy:      -254.305932  Gnorm:      4.563776  CPU:    0.040
  ** Hessian calculated **
  Cycle:      2 Energy:      -254.592611  Gnorm:      0.355011  CPU:    0.070
  Cycle:      3 Energy:      -254.593660  Gnorm:      0.047395  CPU:    0.089
  Cycle:      4 Energy:      -254.593677  Gnorm:      0.000235  CPU:    0.107


  **** Optimisation achieved ****


  Final energy =    -254.59367745 eV
  Final Gnorm  =       0.00001923

  Components of energy : 

--------------------------------------------------------------------------------
  Interatomic potentials     =          35.43254771 eV
  Monopole - monopole (real) =        -130.33785971 eV
  Monopole - monopole (recip)=        -159.68836545 eV
  Monopole - monopole (total)=        -290.02622516 eV
--------------------------------------------------------------------------------
  Total lattice energy       =        -254.59367745 eV
--------------------------------------------------------------------------------
  Total lattice energy       =          -24564.3981 kJ/(mole unit cells)
--------------------------------------------------------------------------------

  Final asymmetric unit coordinates :

--------------------------------------------------------------------------------
   No.  Atomic        x           y           z         Radius
        Label       (Frac)      (Frac)      (Frac)       (Angs) 
--------------------------------------------------------------------------------
     1  K     c     0.042000    0.250000    0.490600    0.000000
     2  Ca    c     0.000000    0.000000    0.000000    0.000000
     3  F     c     0.471500    0.250000    0.581200    0.000000
     4  F     c     0.291600    0.040400    0.206800    0.000000
     5  F     s     0.471500    0.250000    0.581200    0.000000
     6  F     s     0.291600    0.040400    0.206800    0.000000
--------------------------------------------------------------------------------

  Final Cartesian lattice vectors (Angstroms) :

        5.444264    0.000000    0.000000
        0.000000    7.547746    0.000000
        0.000000    0.000000    5.341231


  Final cell parameters and derivatives :

--------------------------------------------------------------------------------
       a            5.444264 Angstrom     dE/de1(xx)     0.000037 eV/strain
       b            7.547746 Angstrom     dE/de2(yy)     0.000011 eV/strain
       c            5.341231 Angstrom     dE/de3(zz)    -0.000043 eV/strain
       alpha       90.000000 Degrees      dE/de4(yz)     0.000000 eV/strain
       beta        90.000000 Degrees      dE/de5(xz)     0.000000 eV/strain
       gamma       90.000000 Degrees      dE/de6(xy)     0.000000 eV/strain
--------------------------------------------------------------------------------

  Primitive cell volume =           219.481462 Angs**3

  Density of cell =      4.121274 g/cm**3

  Non-primitive cell volume =           219.481462 Angs**3


  Final internal derivatives :

--------------------------------------------------------------------------------
   No.  Atomic          a             b             c           Radius
        Label          (eV)          (eV)          (eV)        (eV/Angs)
--------------------------------------------------------------------------------
      1 K     c       0.000000      0.000000      0.000000      0.000000
      2 Ca    c       0.000000      0.000000      0.000000      0.000000
      3 F     c       0.000000      0.000000      0.000000      0.000000
      4 F     c       0.000000      0.000000      0.000000      0.000000
      5 F     s       0.000000      0.000000      0.000000      0.000000
      6 F     s       0.000000      0.000000      0.000000      0.000000
--------------------------------------------------------------------------------
  Maximum abs         0.000000      0.000000      0.000000      0.000000
--------------------------------------------------------------------------------


  Born effective charge tensors : 

-------------------------------------------------------------------------------
  Atom             x           y             z
-------------------------------------------------------------------------------
   1 K     x       1.2143      0.0000     -0.0595
           y       0.0000      1.2787      0.0000
           z      -0.0628      0.0000      1.2007
-------------------------------------------------------------------------------
   2 Ca    x       2.1707      0.0152     -0.0454
           y      -0.0054      2.1209     -0.0347
           z       0.0178      0.0458      2.1714
-------------------------------------------------------------------------------
   3 F     x      -1.0160      0.0000      0.0280
           y       0.0000     -1.3230      0.0000
           z       0.0539      0.0000     -0.9891
-------------------------------------------------------------------------------
   4 F     x      -1.1845      0.0284     -0.1598
           y       0.0368     -1.0383     -0.0285
           z      -0.1567     -0.0281     -1.1914
-------------------------------------------------------------------------------




  Elastic Constant Matrix: (Units=GPa)

-------------------------------------------------------------------------------
  Indices      1         2         3         4         5         6    
-------------------------------------------------------------------------------
       1    225.1996  102.3498   85.4000    0.0000    0.0000    0.0000
       2    102.3498  220.9831  112.2566    0.0000    0.0000    0.0000
       3     85.4000  112.2566  245.6479    0.0000    0.0000    0.0000
       4      0.0000    0.0000    0.0000   86.6854    0.0000    0.0000
       5      0.0000    0.0000    0.0000    0.0000   50.2231    0.0000
       6      0.0000    0.0000    0.0000    0.0000    0.0000   97.9799
-------------------------------------------------------------------------------


  Elastic Compliance Matrix: (Units=1/GPa)

-------------------------------------------------------------------------------
  Indices      1         2         3         4         5         6    
-------------------------------------------------------------------------------
       1    0.005818 -0.002171 -0.001030  0.000000  0.000000  0.000000
       2   -0.002171  0.006704 -0.002309  0.000000  0.000000  0.000000
       3   -0.001030 -0.002309  0.005484  0.000000  0.000000  0.000000
       4    0.000000  0.000000  0.000000  0.011536  0.000000  0.000000
       5    0.000000  0.000000  0.000000  0.000000  0.019911  0.000000
       6    0.000000  0.000000  0.000000  0.000000  0.000000  0.010206
-------------------------------------------------------------------------------

  Mechanical properties :

-------------------------------------------------------------------------------
  Convention :                    Reuss         Voigt         Hill
-------------------------------------------------------------------------------
  Bulk  Modulus (GPa)     =     143.15954     143.53817     143.34886
  Shear Modulus (GPa)     =      68.48569      73.09928      70.79248
-------------------------------------------------------------------------------
  Velocity S-wave (km/s)  =       4.07647       4.21154       4.14455
  Velocity P-wave (km/s)  =       7.54278       7.64709       7.59511
-------------------------------------------------------------------------------
  Compressibility (1/GPa) =    0.00698521
-------------------------------------------------------------------------------
  Stress axis :                     x             y             z
-------------------------------------------------------------------------------
  Youngs Moduli (GPa)     =     171.87864     149.17404     182.34570
-------------------------------------------------------------------------------
  Poissons Ratio (x)      =                     0.32389       0.18790
  Poissons Ratio (y)      =       0.37319                     0.42096
  Poissons Ratio (z)      =       0.17711       0.34438
-------------------------------------------------------------------------------


  Piezoelectric Strain Matrix: (Units=C/m**2)

-------------------------------------------------------------------------------
  Indices      1         2         3         4         5         6    
-------------------------------------------------------------------------------
       x     0.00000   0.00000   0.00000   0.00000   0.00000   0.00000
       y     0.00000   0.00000   0.00000   0.00000   0.00000   0.00000
       z     0.00000   0.00000   0.00000   0.00000   0.00000   0.00000
-------------------------------------------------------------------------------


  Piezoelectric Stress Matrix: (Units=10**-11 C/N)

-------------------------------------------------------------------------------
  Indices      1         2         3         4         5         6    
-------------------------------------------------------------------------------
       x     0.00000   0.00000   0.00000   0.00000   0.00000   0.00000
       y     0.00000   0.00000   0.00000   0.00000   0.00000   0.00000
       z     0.00000   0.00000   0.00000   0.00000   0.00000   0.00000
-------------------------------------------------------------------------------


  Static dielectric constant tensor : 

-------------------------------------------------------------------------------
              x         y         z
-------------------------------------------------------------------------------
       x     4.99095   0.00000   0.00000
       y     0.00000   5.02713   0.00000
       z     0.00000   0.00000   4.75366
--------------------------------------------------------------------------------

  High frequency dielectric constant tensor : 

-------------------------------------------------------------------------------
              x         y         z
-------------------------------------------------------------------------------
       x     1.75293   0.00000   0.00000
       y     0.00000   1.75591   0.00000
       z     0.00000   0.00000   1.74997
-------------------------------------------------------------------------------

  Static refractive indices : 

-------------------------------------------------------------------------------
    1 =    2.18029      2 =    2.23404      3 =    2.24213
-------------------------------------------------------------------------------

  High frequency refractive indices : 

-------------------------------------------------------------------------------
    1 =    1.32286      2 =    1.32398      3 =    1.32511
-------------------------------------------------------------------------------


  Time to end of optimisation =       0.1817 seconds


  Peak dynamic memory used =       0.73 MB 


  Timing analysis for GULP :

--------------------------------------------------------------------------------
  Task / Subroutine                                          Time (Seconds)
--------------------------------------------------------------------------------
  Calculation of reciprocal space energy and derivatives          0.0027
  Calculation of reciprocal space energy using symmetry           0.0052
  Calculation of real space energy and derivatives                0.0516
  Calculation of real space energy using symmetry                 0.1176
  Symmetry generation of equivalent positions                     0.0004
--------------------------------------------------------------------------------
  Total CPU time                                                  0.1817
--------------------------------------------------------------------------------


  CIF file written as perov.cif                                               


  Job Finished at 09:43.03  6th April      2017                               

