********************************************************************************
*                       GENERAL UTILITY LATTICE PROGRAM                        *
*                                 Julian Gale                                  *
*                      Nanochemistry Research Institute                        *
*                           Department of Chemistry                            *
*                    Curtin University, Western Australia                      *
********************************************************************************
* Version = 4.3.2 * Last modified =  3rd March 2015                            *
********************************************************************************
*  optimise     - perform optimisation run                                     *
*  cell_only    - only optimise unit cell                                      *
*  property     - calculate properties for final geometry                      *
********************************************************************************

  Job Started  at 09:42.53  6th April      2017                               

  Number of CPUs =     1


  Total number of configurations input =   1

********************************************************************************
*  Input for Configuration =   1                                               *
********************************************************************************

  Formula = K4Ca4F12                                                    

  Number of irreducible atoms/shells =       6


  Total number atoms/shells =      32

  Dimensionality = 3               :  Bulk   


  Symmetry :

  Crystal family                   :  Orthorhombic
  Crystal class  (Groth - 1921)    :  Orthorhombic Bipyramidal             

  Space group (centrosymmetric)    :  P N M A         

  Patterson group                  :  P m m m  

  Cartesian lattice vectors (Angstroms) :

        6.223500    0.000000    0.000000
        0.000000    8.710300    0.000000
        0.000000    0.000000    6.118000

  Cell parameters (Angstroms/Degrees):

  a =       6.2235    alpha =  90.0000
  b =       8.7103    beta  =  90.0000
  c =       6.1180    gamma =  90.0000

  Initial cell volume =         331.647921 Angs**3

  Temperature of configuration =  0.000     K 

  Pressure of configuration =         0.000 GPa 

  Fractional coordinates of asymmetric unit :

--------------------------------------------------------------------------------
   No.  Atomic       x           y          z         Charge      Occupancy
        Label      (Frac)      (Frac)     (Frac)        (e)         (Frac)  
--------------------------------------------------------------------------------
      1 K     c    0.042000    0.250000    0.490600     0.90000    1.000000    
      2 Ca    c    0.000000    0.000000    0.000000     1.60000    1.000000    
      3 F     c    0.471500    0.250000    0.581200     0.37800    1.000000    
      4 F     c    0.291600    0.040400    0.206800     0.37800    1.000000    
      5 F     s    0.471500    0.250000    0.581200    -1.21133    1.000000    
      6 F     s    0.291600    0.040400    0.206800    -1.21133    1.000000    
--------------------------------------------------------------------------------



********************************************************************************
*  General input information                                                   *
********************************************************************************

  Species output for all configurations : 

--------------------------------------------------------------------------------
  Species    Type    Atomic    Atomic    Charge       Radii (Angs)     Library
                     Number     Mass       (e)     Cova   Ionic  VDW   Symbol
--------------------------------------------------------------------------------
    K        Core       19      39.10   0.900000   1.330  0.000  2.800          
    Ca       Core       20      40.08   1.600000   0.990  0.000  2.750          
    F        Core        9      19.00   0.378000   0.710  0.000  1.300          
    F        Shell       9       0.00  -1.211333   0.710  0.000  1.300          
--------------------------------------------------------------------------------


  Lattice summation method               =    Ewald          (3-D)
                                         =    Parry          (2-D)
                                         =    Saunders et al (1-D)
  Accuracy factor for lattice sums       =   12.000


  Time limit = Infinity

  Maximum range for interatomic potentials =    100000.000000 Angstroms

  General interatomic potentials :

--------------------------------------------------------------------------------
Atom  Types   Potential         A         B         C         D     Cutoffs(Ang)
  1     2                                                            Min    Max 
--------------------------------------------------------------------------------
K    c K    c Buckingham    0.219E+04 0.192      0.00      0.00     0.000 30.000
Ca   c F    s Buckingham    0.148E+04 0.266      0.00      0.00     0.000 30.000
F    s F    s Buckingham     912.     0.271      13.8      0.00     0.000 30.000
K    c F    s Buckingham    0.352E+04 0.267      0.00      0.00     0.000 30.000
F    c F    s Spring (c-s)   18.8      0.00      0.00      0.00     0.000  0.800
--------------------------------------------------------------------------------

********************************************************************************
*  Output for configuration   1                                                *
********************************************************************************


  Components of energy : 

--------------------------------------------------------------------------------
  Interatomic potentials     =          10.64736838 eV
  Monopole - monopole (real) =         -49.47831846 eV
  Monopole - monopole (recip)=         -60.54848830 eV
  Monopole - monopole (total)=        -110.02680676 eV
--------------------------------------------------------------------------------
  Total lattice energy       =         -99.37943838 eV
--------------------------------------------------------------------------------
  Total lattice energy       =           -9588.5966 kJ/(mole unit cells)
--------------------------------------------------------------------------------


  Number of variables =        3

  Maximum number of calculations  =          1000
  Maximum Hessian update interval =            10
  Maximum step size               =   1.000000000
  Maximum parameter tolerance     =   0.000010000
  Maximum function  tolerance     =   0.000010000
  Maximum gradient  tolerance     =   0.001000000
  Maximum gradient  component     =   0.010000000

  Symmetry constrained optimisation

  Symmetry used for second derivatives

  Cell parameters to be optimised using strains

  Newton-Raphson optimiser to be used

  BFGS hessian update to be used

  Start of bulk optimisation :

  Cycle:      0 Energy:       -99.379438  Gnorm:      2.046661  CPU:    0.014
  ** Hessian calculated **
  Cycle:      1 Energy:       -99.456662  Gnorm:      0.026060  CPU:    0.031
  Cycle:      2 Energy:       -99.456687  Gnorm:      0.004194  CPU:    0.045


  **** Optimisation achieved ****


  Final energy =     -99.45668737 eV
  Final Gnorm  =       0.00008350

  Components of energy : 

--------------------------------------------------------------------------------
  Interatomic potentials     =          12.11450434 eV
  Monopole - monopole (real) =         -50.17066151 eV
  Monopole - monopole (recip)=         -61.40053019 eV
  Monopole - monopole (total)=        -111.57119171 eV
--------------------------------------------------------------------------------
  Total lattice energy       =         -99.45668737 eV
--------------------------------------------------------------------------------
  Total lattice energy       =           -9596.0500 kJ/(mole unit cells)
--------------------------------------------------------------------------------

  Final asymmetric unit coordinates :

--------------------------------------------------------------------------------
   No.  Atomic        x           y           z         Radius
        Label       (Frac)      (Frac)      (Frac)       (Angs) 
--------------------------------------------------------------------------------
     1  K     c     0.042000    0.250000    0.490600    0.000000
     2  Ca    c     0.000000    0.000000    0.000000    0.000000
     3  F     c     0.471500    0.250000    0.581200    0.000000
     4  F     c     0.291600    0.040400    0.206800    0.000000
     5  F     s     0.471500    0.250000    0.581200    0.000000
     6  F     s     0.291600    0.040400    0.206800    0.000000
--------------------------------------------------------------------------------

  Final Cartesian lattice vectors (Angstroms) :

        6.156224    0.000000    0.000000
        0.000000    8.545584    0.000000
        0.000000    0.000000    6.045233


  Final cell parameters and derivatives :

--------------------------------------------------------------------------------
       a            6.156224 Angstrom     dE/de1(xx)     0.000157 eV/strain
       b            8.545584 Angstrom     dE/de2(yy)     0.000120 eV/strain
       c            6.045233 Angstrom     dE/de3(zz)     0.000154 eV/strain
       alpha       90.000000 Degrees      dE/de4(yz)     0.000000 eV/strain
       beta        90.000000 Degrees      dE/de5(xz)     0.000000 eV/strain
       gamma       90.000000 Degrees      dE/de6(xy)     0.000000 eV/strain
--------------------------------------------------------------------------------

  Primitive cell volume =           318.030773 Angs**3

  Density of cell =      2.844200 g/cm**3

  Non-primitive cell volume =           318.030773 Angs**3


  Final internal derivatives :

--------------------------------------------------------------------------------
   No.  Atomic          a             b             c           Radius
        Label          (eV)          (eV)          (eV)        (eV/Angs)
--------------------------------------------------------------------------------
      1 K     c       0.000000      0.000000      0.000000      0.000000
      2 Ca    c       0.000000      0.000000      0.000000      0.000000
      3 F     c       0.000000      0.000000      0.000000      0.000000
      4 F     c       0.000000      0.000000      0.000000      0.000000
      5 F     s       0.000000      0.000000      0.000000      0.000000
      6 F     s       0.000000      0.000000      0.000000      0.000000
--------------------------------------------------------------------------------
  Maximum abs         0.000000      0.000000      0.000000      0.000000
--------------------------------------------------------------------------------


  Born effective charge tensors : 

-------------------------------------------------------------------------------
  Atom             x           y             z
-------------------------------------------------------------------------------
   1 K     x       0.8273      0.0000     -0.0297
           y       0.0000      0.8601      0.0000
           z      -0.0312      0.0000      0.8188
-------------------------------------------------------------------------------
   2 Ca    x       1.3992      0.0086     -0.0116
           y       0.0025      1.3727     -0.0034
           z       0.0012      0.0124      1.3994
-------------------------------------------------------------------------------
   3 F     x      -0.7065      0.0000      0.0161
           y       0.0000     -0.7951      0.0000
           z       0.0228      0.0000     -0.6875
-------------------------------------------------------------------------------
   4 F     x      -0.7600      0.0176     -0.0493
           y       0.0215     -0.7188     -0.0194
           z      -0.0482     -0.0198     -0.7654
-------------------------------------------------------------------------------




  Elastic Constant Matrix: (Units=GPa)

-------------------------------------------------------------------------------
  Indices      1         2         3         4         5         6    
-------------------------------------------------------------------------------
       1     67.8920   29.0397   33.1708    0.0000    0.0000    0.0000
       2     29.0397   73.8450   32.1354    0.0000    0.0000    0.0000
       3     33.1708   32.1354   69.8936    0.0000    0.0000    0.0000
       4      0.0000    0.0000    0.0000   21.1296    0.0000    0.0000
       5      0.0000    0.0000    0.0000    0.0000   19.9420    0.0000
       6      0.0000    0.0000    0.0000    0.0000    0.0000   24.6813
-------------------------------------------------------------------------------


  Elastic Compliance Matrix: (Units=1/GPa)

-------------------------------------------------------------------------------
  Indices      1         2         3         4         5         6    
-------------------------------------------------------------------------------
       1    0.020437 -0.004771 -0.007506  0.000000  0.000000  0.000000
       2   -0.004771  0.018043 -0.006032  0.000000  0.000000  0.000000
       3   -0.007506 -0.006032  0.020643  0.000000  0.000000  0.000000
       4    0.000000  0.000000  0.000000  0.047327  0.000000  0.000000
       5    0.000000  0.000000  0.000000  0.000000  0.050146  0.000000
       6    0.000000  0.000000  0.000000  0.000000  0.000000  0.040516
-------------------------------------------------------------------------------

  Mechanical properties :

-------------------------------------------------------------------------------
  Convention :                    Reuss         Voigt         Hill
-------------------------------------------------------------------------------
  Bulk  Modulus (GPa)     =      44.43126      44.48027      44.45576
  Shear Modulus (GPa)     =      20.72716      20.96956      20.84836
-------------------------------------------------------------------------------
  Velocity S-wave (km/s)  =       2.69954       2.71528       2.70742
  Velocity P-wave (km/s)  =       5.03373       5.04671       5.04022
-------------------------------------------------------------------------------
  Compressibility (1/GPa) =    0.02250668
-------------------------------------------------------------------------------
  Stress axis :                     x             y             z
-------------------------------------------------------------------------------
  Youngs Moduli (GPa)     =      48.93085      55.42414      48.44311
-------------------------------------------------------------------------------
  Poissons Ratio (x)      =                     0.26441       0.36360
  Poissons Ratio (y)      =       0.23343                     0.29219
  Poissons Ratio (z)      =       0.36726       0.33429
-------------------------------------------------------------------------------


  Piezoelectric Strain Matrix: (Units=C/m**2)

-------------------------------------------------------------------------------
  Indices      1         2         3         4         5         6    
-------------------------------------------------------------------------------
       x     0.00000   0.00000   0.00000   0.00000   0.00000   0.00000
       y     0.00000   0.00000   0.00000   0.00000   0.00000   0.00000
       z     0.00000   0.00000   0.00000   0.00000   0.00000   0.00000
-------------------------------------------------------------------------------


  Piezoelectric Stress Matrix: (Units=10**-11 C/N)

-------------------------------------------------------------------------------
  Indices      1         2         3         4         5         6    
-------------------------------------------------------------------------------
       x     0.00000   0.00000   0.00000   0.00000   0.00000   0.00000
       y     0.00000   0.00000   0.00000   0.00000   0.00000   0.00000
       z     0.00000   0.00000   0.00000   0.00000   0.00000   0.00000
-------------------------------------------------------------------------------


  Static dielectric constant tensor : 

-------------------------------------------------------------------------------
              x         y         z
-------------------------------------------------------------------------------
       x     3.76708   0.00000   0.00000
       y     0.00000   4.06788   0.00000
       z     0.00000   0.00000   3.52574
--------------------------------------------------------------------------------

  High frequency dielectric constant tensor : 

-------------------------------------------------------------------------------
              x         y         z
-------------------------------------------------------------------------------
       x     1.52197   0.00000   0.00000
       y     0.00000   1.52329   0.00000
       z     0.00000   0.00000   1.52014
-------------------------------------------------------------------------------

  Static refractive indices : 

-------------------------------------------------------------------------------
    1 =    1.87769      2 =    1.94090      3 =    2.01690
-------------------------------------------------------------------------------

  High frequency refractive indices : 

-------------------------------------------------------------------------------
    1 =    1.23294      2 =    1.23368      3 =    1.23421
-------------------------------------------------------------------------------


  Time to end of optimisation =       0.0999 seconds


  Peak dynamic memory used =       0.73 MB 


  Timing analysis for GULP :

--------------------------------------------------------------------------------
  Task / Subroutine                                          Time (Seconds)
--------------------------------------------------------------------------------
  Calculation of reciprocal space energy and derivatives          0.0025
  Calculation of reciprocal space energy using symmetry           0.0030
  Calculation of real space energy and derivatives                0.0370
  Calculation of real space energy using symmetry                 0.0532
  Symmetry generation of equivalent positions                     0.0003
--------------------------------------------------------------------------------
  Total CPU time                                                  0.0999
--------------------------------------------------------------------------------


  CIF file written as perov.cif                                               


  Job Finished at 09:42.53  6th April      2017                               

