********************************************************************************
*                       GENERAL UTILITY LATTICE PROGRAM                        *
*                                 Julian Gale                                  *
*                      Nanochemistry Research Institute                        *
*                           Department of Chemistry                            *
*                    Curtin University, Western Australia                      *
********************************************************************************
* Version = 4.3.2 * Last modified =  3rd March 2015                            *
********************************************************************************
*  optimise     - perform optimisation run                                     *
*  cell_only    - only optimise unit cell                                      *
*  property     - calculate properties for final geometry                      *
********************************************************************************

  Job Started  at 09:42.47  6th April      2017                               

  Number of CPUs =     1


  Total number of configurations input =   1

********************************************************************************
*  Input for Configuration =   1                                               *
********************************************************************************

  Formula = K4Ca4F12                                                    

  Number of irreducible atoms/shells =       6


  Total number atoms/shells =      32

  Dimensionality = 3               :  Bulk   


  Symmetry :

  Crystal family                   :  Orthorhombic
  Crystal class  (Groth - 1921)    :  Orthorhombic Bipyramidal             

  Space group (centrosymmetric)    :  P N M A         

  Patterson group                  :  P m m m  

  Cartesian lattice vectors (Angstroms) :

        6.223500    0.000000    0.000000
        0.000000    8.710300    0.000000
        0.000000    0.000000    6.118000

  Cell parameters (Angstroms/Degrees):

  a =       6.2235    alpha =  90.0000
  b =       8.7103    beta  =  90.0000
  c =       6.1180    gamma =  90.0000

  Initial cell volume =         331.647921 Angs**3

  Temperature of configuration =  0.000     K 

  Pressure of configuration =         0.000 GPa 

  Fractional coordinates of asymmetric unit :

--------------------------------------------------------------------------------
   No.  Atomic       x           y          z         Charge      Occupancy
        Label      (Frac)      (Frac)     (Frac)        (e)         (Frac)  
--------------------------------------------------------------------------------
      1 K     c    0.042000    0.250000    0.490600     0.50000    1.000000    
      2 Ca    c    0.000000    0.000000    0.000000     2.40000    1.000000    
      3 F     c    0.471500    0.250000    0.581200     0.37800    1.000000    
      4 F     c    0.291600    0.040400    0.206800     0.37800    1.000000    
      5 F     s    0.471500    0.250000    0.581200    -1.34467    1.000000    
      6 F     s    0.291600    0.040400    0.206800    -1.34467    1.000000    
--------------------------------------------------------------------------------



********************************************************************************
*  General input information                                                   *
********************************************************************************

  Species output for all configurations : 

--------------------------------------------------------------------------------
  Species    Type    Atomic    Atomic    Charge       Radii (Angs)     Library
                     Number     Mass       (e)     Cova   Ionic  VDW   Symbol
--------------------------------------------------------------------------------
    K        Core       19      39.10   0.500000   1.330  0.000  2.800          
    Ca       Core       20      40.08   2.400000   0.990  0.000  2.750          
    F        Core        9      19.00   0.378000   0.710  0.000  1.300          
    F        Shell       9       0.00  -1.344667   0.710  0.000  1.300          
--------------------------------------------------------------------------------


  Lattice summation method               =    Ewald          (3-D)
                                         =    Parry          (2-D)
                                         =    Saunders et al (1-D)
  Accuracy factor for lattice sums       =   12.000


  Time limit = Infinity

  Maximum range for interatomic potentials =    100000.000000 Angstroms

  General interatomic potentials :

--------------------------------------------------------------------------------
Atom  Types   Potential         A         B         C         D     Cutoffs(Ang)
  1     2                                                            Min    Max 
--------------------------------------------------------------------------------
K    c K    c Buckingham    0.219E+04 0.192      0.00      0.00     0.000 30.000
Ca   c F    s Buckingham    0.148E+04 0.266      0.00      0.00     0.000 30.000
F    s F    s Buckingham     912.     0.271      13.8      0.00     0.000 30.000
K    c F    s Buckingham    0.352E+04 0.267      0.00      0.00     0.000 30.000
F    c F    s Spring (c-s)   23.2      0.00      0.00      0.00     0.000  0.800
--------------------------------------------------------------------------------

********************************************************************************
*  Output for configuration   1                                                *
********************************************************************************


  Components of energy : 

--------------------------------------------------------------------------------
  Interatomic potentials     =          10.64736838 eV
  Monopole - monopole (real) =         -77.62376748 eV
  Monopole - monopole (recip)=         -97.65138956 eV
  Monopole - monopole (total)=        -175.27515705 eV
--------------------------------------------------------------------------------
  Total lattice energy       =        -164.62778866 eV
--------------------------------------------------------------------------------
  Total lattice energy       =          -15884.0650 kJ/(mole unit cells)
--------------------------------------------------------------------------------


  Number of variables =        3

  Maximum number of calculations  =          1000
  Maximum Hessian update interval =            10
  Maximum step size               =   1.000000000
  Maximum parameter tolerance     =   0.000010000
  Maximum function  tolerance     =   0.000010000
  Maximum gradient  tolerance     =   0.001000000
  Maximum gradient  component     =   0.010000000

  Symmetry constrained optimisation

  Symmetry used for second derivatives

  Cell parameters to be optimised using strains

  Newton-Raphson optimiser to be used

  BFGS hessian update to be used

  Start of bulk optimisation :

  Cycle:      0 Energy:      -164.627789  Gnorm:     14.596765  CPU:    0.014
  ** Hessian calculated **
  Cycle:      1 Energy:      -167.851401  Gnorm:      4.329545  CPU:    0.030
  Cycle:      2 Energy:      -168.035207  Gnorm:      0.317219  CPU:    0.049
  Cycle:      3 Energy:      -168.037929  Gnorm:      0.062990  CPU:    0.065
  Cycle:      4 Energy:      -168.037974  Gnorm:      0.000597  CPU:    0.082


  **** Optimisation achieved ****


  Final energy =    -168.03797428 eV
  Final Gnorm  =       0.00004578

  Components of energy : 

--------------------------------------------------------------------------------
  Interatomic potentials     =          22.02281963 eV
  Monopole - monopole (real) =         -84.16842808 eV
  Monopole - monopole (recip)=        -105.89236583 eV
  Monopole - monopole (total)=        -190.06079391 eV
--------------------------------------------------------------------------------
  Total lattice energy       =        -168.03797428 eV
--------------------------------------------------------------------------------
  Total lattice energy       =          -16213.0958 kJ/(mole unit cells)
--------------------------------------------------------------------------------

  Final asymmetric unit coordinates :

--------------------------------------------------------------------------------
   No.  Atomic        x           y           z         Radius
        Label       (Frac)      (Frac)      (Frac)       (Angs) 
--------------------------------------------------------------------------------
     1  K     c     0.042000    0.250000    0.490600    0.000000
     2  Ca    c     0.000000    0.000000    0.000000    0.000000
     3  F     c     0.471500    0.250000    0.581200    0.000000
     4  F     c     0.291600    0.040400    0.206800    0.000000
     5  F     s     0.471500    0.250000    0.581200    0.000000
     6  F     s     0.291600    0.040400    0.206800    0.000000
--------------------------------------------------------------------------------

  Final Cartesian lattice vectors (Angstroms) :

        5.757255    0.000000    0.000000
        0.000000    7.987243    0.000000
        0.000000    0.000000    5.655857


  Final cell parameters and derivatives :

--------------------------------------------------------------------------------
       a            5.757255 Angstrom     dE/de1(xx)     0.000094 eV/strain
       b            7.987243 Angstrom     dE/de2(yy)     0.000012 eV/strain
       c            5.655857 Angstrom     dE/de3(zz)    -0.000100 eV/strain
       alpha       90.000000 Degrees      dE/de4(yz)     0.000000 eV/strain
       beta        90.000000 Degrees      dE/de5(xz)     0.000000 eV/strain
       gamma       90.000000 Degrees      dE/de6(xy)     0.000000 eV/strain
--------------------------------------------------------------------------------

  Primitive cell volume =           260.082270 Angs**3

  Density of cell =      3.477912 g/cm**3

  Non-primitive cell volume =           260.082270 Angs**3


  Final internal derivatives :

--------------------------------------------------------------------------------
   No.  Atomic          a             b             c           Radius
        Label          (eV)          (eV)          (eV)        (eV/Angs)
--------------------------------------------------------------------------------
      1 K     c       0.000000      0.000000      0.000000      0.000000
      2 Ca    c       0.000000      0.000000      0.000000      0.000000
      3 F     c       0.000000      0.000000      0.000000      0.000000
      4 F     c       0.000000      0.000000      0.000000      0.000000
      5 F     s       0.000000      0.000000      0.000000      0.000000
      6 F     s       0.000000      0.000000      0.000000      0.000000
--------------------------------------------------------------------------------
  Maximum abs         0.000000      0.000000      0.000000      0.000000
--------------------------------------------------------------------------------


  Born effective charge tensors : 

-------------------------------------------------------------------------------
  Atom             x           y             z
-------------------------------------------------------------------------------
   1 K     x       0.2526      0.0000     -0.0799
           y       0.0000      0.3053      0.0000
           z      -0.0621      0.0000      0.2445
-------------------------------------------------------------------------------
   2 Ca    x       2.2973      0.0150     -0.0704
           y      -0.0168      2.2496     -0.0558
           z       0.0323      0.0670      2.2995
-------------------------------------------------------------------------------
   3 F     x      -0.6900      0.0000      0.0374
           y       0.0000     -1.1494      0.0000
           z       0.0629      0.0000     -0.6637
-------------------------------------------------------------------------------
   4 F     x      -0.9300      0.0285     -0.2425
           y       0.0322     -0.7027     -0.0104
           z      -0.2390     -0.0075     -0.9401
-------------------------------------------------------------------------------




  Elastic Constant Matrix: (Units=GPa)

-------------------------------------------------------------------------------
  Indices      1         2         3         4         5         6    
-------------------------------------------------------------------------------
       1    121.0480   57.3819   67.1062    0.0000    0.0000    0.0000
       2     57.3819  129.7409   71.7204    0.0000    0.0000    0.0000
       3     67.1062   71.7204  120.3520    0.0000    0.0000    0.0000
       4      0.0000    0.0000    0.0000   37.3319    0.0000    0.0000
       5      0.0000    0.0000    0.0000    0.0000   28.6466    0.0000
       6      0.0000    0.0000    0.0000    0.0000    0.0000   47.3059
-------------------------------------------------------------------------------


  Elastic Compliance Matrix: (Units=1/GPa)

-------------------------------------------------------------------------------
  Indices      1         2         3         4         5         6    
-------------------------------------------------------------------------------
       1    0.012476 -0.002494 -0.005470  0.000000  0.000000  0.000000
       2   -0.002494  0.011993 -0.005756  0.000000  0.000000  0.000000
       3   -0.005470 -0.005756  0.014789  0.000000  0.000000  0.000000
       4    0.000000  0.000000  0.000000  0.026787  0.000000  0.000000
       5    0.000000  0.000000  0.000000  0.000000  0.034908  0.000000
       6    0.000000  0.000000  0.000000  0.000000  0.000000  0.021139
-------------------------------------------------------------------------------

  Mechanical properties :

-------------------------------------------------------------------------------
  Convention :                    Reuss         Voigt         Hill
-------------------------------------------------------------------------------
  Bulk  Modulus (GPa)     =      84.62123      84.83976      84.73050
  Shear Modulus (GPa)     =      32.57937      34.31905      33.44921
-------------------------------------------------------------------------------
  Velocity S-wave (km/s)  =       3.06064       3.14129       3.10123
  Velocity P-wave (km/s)  =       6.06804       6.12787       6.09803
-------------------------------------------------------------------------------
  Compressibility (1/GPa) =    0.01181736
-------------------------------------------------------------------------------
  Stress axis :                     x             y             z
-------------------------------------------------------------------------------
  Youngs Moduli (GPa)     =      80.15412      83.38431      67.61689
-------------------------------------------------------------------------------
  Poissons Ratio (x)      =                     0.20796       0.36987
  Poissons Ratio (y)      =       0.19990                     0.38921
  Poissons Ratio (z)      =       0.43846       0.47997
-------------------------------------------------------------------------------


  Piezoelectric Strain Matrix: (Units=C/m**2)

-------------------------------------------------------------------------------
  Indices      1         2         3         4         5         6    
-------------------------------------------------------------------------------
       x     0.00000   0.00000   0.00000   0.00000   0.00000   0.00000
       y     0.00000   0.00000   0.00000   0.00000   0.00000   0.00000
       z     0.00000   0.00000   0.00000   0.00000   0.00000   0.00000
-------------------------------------------------------------------------------


  Piezoelectric Stress Matrix: (Units=10**-11 C/N)

-------------------------------------------------------------------------------
  Indices      1         2         3         4         5         6    
-------------------------------------------------------------------------------
       x     0.00000   0.00000   0.00000   0.00000   0.00000   0.00000
       y     0.00000   0.00000   0.00000   0.00000   0.00000   0.00000
       z     0.00000   0.00000   0.00000   0.00000   0.00000   0.00000
-------------------------------------------------------------------------------


  Static dielectric constant tensor : 

-------------------------------------------------------------------------------
              x         y         z
-------------------------------------------------------------------------------
       x     4.79793   0.00000   0.00000
       y     0.00000   4.18936   0.00000
       z     0.00000   0.00000   4.59427
--------------------------------------------------------------------------------

  High frequency dielectric constant tensor : 

-------------------------------------------------------------------------------
              x         y         z
-------------------------------------------------------------------------------
       x     1.63595   0.00000   0.00000
       y     0.00000   1.63720   0.00000
       z     0.00000   0.00000   1.63413
-------------------------------------------------------------------------------

  Static refractive indices : 

-------------------------------------------------------------------------------
    1 =    2.04679      2 =    2.14342      3 =    2.19042
-------------------------------------------------------------------------------

  High frequency refractive indices : 

-------------------------------------------------------------------------------
    1 =    1.27833      2 =    1.27904      3 =    1.27953
-------------------------------------------------------------------------------


  Time to end of optimisation =       0.1450 seconds


  Peak dynamic memory used =       0.73 MB 


  Timing analysis for GULP :

--------------------------------------------------------------------------------
  Task / Subroutine                                          Time (Seconds)
--------------------------------------------------------------------------------
  Calculation of reciprocal space energy and derivatives          0.0026
  Calculation of reciprocal space energy using symmetry           0.0045
  Calculation of real space energy and derivatives                0.0425
  Calculation of real space energy using symmetry                 0.0908
  Symmetry generation of equivalent positions                     0.0004
--------------------------------------------------------------------------------
  Total CPU time                                                  0.1450
--------------------------------------------------------------------------------


  CIF file written as perov.cif                                               


  Job Finished at 09:42.48  6th April      2017                               

