********************************************************************************
*                       GENERAL UTILITY LATTICE PROGRAM                        *
*                                 Julian Gale                                  *
*                      Nanochemistry Research Institute                        *
*                           Department of Chemistry                            *
*                    Curtin University, Western Australia                      *
********************************************************************************
* Version = 4.3.2 * Last modified =  3rd March 2015                            *
********************************************************************************
*  optimise     - perform optimisation run                                     *
*  cell_only    - only optimise unit cell                                      *
*  property     - calculate properties for final geometry                      *
********************************************************************************

  Job Started  at 09:42.51  6th April      2017                               

  Number of CPUs =     1


  Total number of configurations input =   1

********************************************************************************
*  Input for Configuration =   1                                               *
********************************************************************************

  Formula = K4Ca4F12                                                    

  Number of irreducible atoms/shells =       6


  Total number atoms/shells =      32

  Dimensionality = 3               :  Bulk   


  Symmetry :

  Crystal family                   :  Orthorhombic
  Crystal class  (Groth - 1921)    :  Orthorhombic Bipyramidal             

  Space group (centrosymmetric)    :  P N M A         

  Patterson group                  :  P m m m  

  Cartesian lattice vectors (Angstroms) :

        6.223500    0.000000    0.000000
        0.000000    8.710300    0.000000
        0.000000    0.000000    6.118000

  Cell parameters (Angstroms/Degrees):

  a =       6.2235    alpha =  90.0000
  b =       8.7103    beta  =  90.0000
  c =       6.1180    gamma =  90.0000

  Initial cell volume =         331.647921 Angs**3

  Temperature of configuration =  0.000     K 

  Pressure of configuration =         0.000 GPa 

  Fractional coordinates of asymmetric unit :

--------------------------------------------------------------------------------
   No.  Atomic       x           y          z         Charge      Occupancy
        Label      (Frac)      (Frac)     (Frac)        (e)         (Frac)  
--------------------------------------------------------------------------------
      1 K     c    0.042000    0.250000    0.490600     0.80000    1.000000    
      2 Ca    c    0.000000    0.000000    0.000000     1.80000    1.000000    
      3 F     c    0.471500    0.250000    0.581200     0.37800    1.000000    
      4 F     c    0.291600    0.040400    0.206800     0.37800    1.000000    
      5 F     s    0.471500    0.250000    0.581200    -1.24467    1.000000    
      6 F     s    0.291600    0.040400    0.206800    -1.24467    1.000000    
--------------------------------------------------------------------------------



********************************************************************************
*  General input information                                                   *
********************************************************************************

  Species output for all configurations : 

--------------------------------------------------------------------------------
  Species    Type    Atomic    Atomic    Charge       Radii (Angs)     Library
                     Number     Mass       (e)     Cova   Ionic  VDW   Symbol
--------------------------------------------------------------------------------
    K        Core       19      39.10   0.800000   1.330  0.000  2.800          
    Ca       Core       20      40.08   1.800000   0.990  0.000  2.750          
    F        Core        9      19.00   0.378000   0.710  0.000  1.300          
    F        Shell       9       0.00  -1.244667   0.710  0.000  1.300          
--------------------------------------------------------------------------------


  Lattice summation method               =    Ewald          (3-D)
                                         =    Parry          (2-D)
                                         =    Saunders et al (1-D)
  Accuracy factor for lattice sums       =   12.000


  Time limit = Infinity

  Maximum range for interatomic potentials =    100000.000000 Angstroms

  General interatomic potentials :

--------------------------------------------------------------------------------
Atom  Types   Potential         A         B         C         D     Cutoffs(Ang)
  1     2                                                            Min    Max 
--------------------------------------------------------------------------------
K    c K    c Buckingham    0.219E+04 0.192      0.00      0.00     0.000 30.000
Ca   c F    s Buckingham    0.148E+04 0.266      0.00      0.00     0.000 30.000
F    s F    s Buckingham     912.     0.271      13.8      0.00     0.000 30.000
K    c F    s Buckingham    0.352E+04 0.267      0.00      0.00     0.000 30.000
F    c F    s Spring (c-s)   19.9      0.00      0.00      0.00     0.000  0.800
--------------------------------------------------------------------------------

********************************************************************************
*  Output for configuration   1                                                *
********************************************************************************


  Components of energy : 

--------------------------------------------------------------------------------
  Interatomic potentials     =          10.64736838 eV
  Monopole - monopole (real) =         -55.73475166 eV
  Monopole - monopole (recip)=         -68.08047889 eV
  Monopole - monopole (total)=        -123.81523056 eV
--------------------------------------------------------------------------------
  Total lattice energy       =        -113.16786217 eV
--------------------------------------------------------------------------------
  Total lattice energy       =          -10918.9688 kJ/(mole unit cells)
--------------------------------------------------------------------------------


  Number of variables =        3

  Maximum number of calculations  =          1000
  Maximum Hessian update interval =            10
  Maximum step size               =   1.000000000
  Maximum parameter tolerance     =   0.000010000
  Maximum function  tolerance     =   0.000010000
  Maximum gradient  tolerance     =   0.001000000
  Maximum gradient  component     =   0.010000000

  Symmetry constrained optimisation

  Symmetry used for second derivatives

  Cell parameters to be optimised using strains

  Newton-Raphson optimiser to be used

  BFGS hessian update to be used

  Start of bulk optimisation :

  Cycle:      0 Energy:      -113.167862  Gnorm:      4.694967  CPU:    0.014
  ** Hessian calculated **
  Cycle:      1 Energy:      -113.552941  Gnorm:      0.495614  CPU:    0.028
  Cycle:      2 Energy:      -113.556617  Gnorm:      0.078445  CPU:    0.042
  Cycle:      3 Energy:      -113.556741  Gnorm:      0.008485  CPU:    0.057
  Cycle:      4 Energy:      -113.556743  Gnorm:      0.002900  CPU:    0.071


  **** Optimisation achieved ****


  Final energy =    -113.55674305 eV
  Final Gnorm  =       0.00002386

  Components of energy : 

--------------------------------------------------------------------------------
  Interatomic potentials     =          14.08748468 eV
  Monopole - monopole (real) =         -57.45585697 eV
  Monopole - monopole (recip)=         -70.18837076 eV
  Monopole - monopole (total)=        -127.64422772 eV
--------------------------------------------------------------------------------
  Total lattice energy       =        -113.55674305 eV
--------------------------------------------------------------------------------
  Total lattice energy       =          -10956.4898 kJ/(mole unit cells)
--------------------------------------------------------------------------------

  Final asymmetric unit coordinates :

--------------------------------------------------------------------------------
   No.  Atomic        x           y           z         Radius
        Label       (Frac)      (Frac)      (Frac)       (Angs) 
--------------------------------------------------------------------------------
     1  K     c     0.042000    0.250000    0.490600    0.000000
     2  Ca    c     0.000000    0.000000    0.000000    0.000000
     3  F     c     0.471500    0.250000    0.581200    0.000000
     4  F     c     0.291600    0.040400    0.206800    0.000000
     5  F     s     0.471500    0.250000    0.581200    0.000000
     6  F     s     0.291600    0.040400    0.206800    0.000000
--------------------------------------------------------------------------------

  Final Cartesian lattice vectors (Angstroms) :

        6.055148    0.000000    0.000000
        0.000000    8.404146    0.000000
        0.000000    0.000000    5.947410


  Final cell parameters and derivatives :

--------------------------------------------------------------------------------
       a            6.055148 Angstrom     dE/de1(xx)     0.000033 eV/strain
       b            8.404146 Angstrom     dE/de2(yy)     0.000053 eV/strain
       c            5.947410 Angstrom     dE/de3(zz)     0.000034 eV/strain
       alpha       90.000000 Degrees      dE/de4(yz)     0.000000 eV/strain
       beta        90.000000 Degrees      dE/de5(xz)     0.000000 eV/strain
       gamma       90.000000 Degrees      dE/de6(xy)     0.000000 eV/strain
--------------------------------------------------------------------------------

  Primitive cell volume =           302.653883 Angs**3

  Density of cell =      2.988705 g/cm**3

  Non-primitive cell volume =           302.653883 Angs**3


  Final internal derivatives :

--------------------------------------------------------------------------------
   No.  Atomic          a             b             c           Radius
        Label          (eV)          (eV)          (eV)        (eV/Angs)
--------------------------------------------------------------------------------
      1 K     c       0.000000      0.000000      0.000000      0.000000
      2 Ca    c       0.000000      0.000000      0.000000      0.000000
      3 F     c       0.000000      0.000000      0.000000      0.000000
      4 F     c       0.000000      0.000000      0.000000      0.000000
      5 F     s       0.000000      0.000000      0.000000      0.000000
      6 F     s       0.000000      0.000000      0.000000      0.000000
--------------------------------------------------------------------------------
  Maximum abs         0.000000      0.000000      0.000000      0.000000
--------------------------------------------------------------------------------


  Born effective charge tensors : 

-------------------------------------------------------------------------------
  Atom             x           y             z
-------------------------------------------------------------------------------
   1 K     x       0.6870      0.0000     -0.0387
           y       0.0000      0.7239      0.0000
           z      -0.0382      0.0000      0.6780
-------------------------------------------------------------------------------
   2 Ca    x       1.6130      0.0090     -0.0207
           y      -0.0005      1.5824     -0.0112
           z       0.0055      0.0205      1.6140
-------------------------------------------------------------------------------
   3 F     x      -0.7036      0.0000      0.0218
           y       0.0000     -0.8739      0.0000
           z       0.0325      0.0000     -0.6828
-------------------------------------------------------------------------------
   4 F     x      -0.7982      0.0197     -0.0917
           y       0.0236     -0.7162     -0.0175
           z      -0.0901     -0.0172     -0.8046
-------------------------------------------------------------------------------




  Elastic Constant Matrix: (Units=GPa)

-------------------------------------------------------------------------------
  Indices      1         2         3         4         5         6    
-------------------------------------------------------------------------------
       1     79.3102   34.8484   38.4549    0.0000    0.0000    0.0000
       2     34.8484   84.8166   39.3891    0.0000    0.0000    0.0000
       3     38.4549   39.3891   81.5672    0.0000    0.0000    0.0000
       4      0.0000    0.0000    0.0000   25.2543    0.0000    0.0000
       5      0.0000    0.0000    0.0000    0.0000   21.4171    0.0000
       6      0.0000    0.0000    0.0000    0.0000    0.0000   29.8048
-------------------------------------------------------------------------------


  Elastic Compliance Matrix: (Units=1/GPa)

-------------------------------------------------------------------------------
  Indices      1         2         3         4         5         6    
-------------------------------------------------------------------------------
       1    0.017497 -0.004329 -0.006158  0.000000  0.000000  0.000000
       2   -0.004329  0.016270 -0.005816  0.000000  0.000000  0.000000
       3   -0.006158 -0.005816  0.017972  0.000000  0.000000  0.000000
       4    0.000000  0.000000  0.000000  0.039597  0.000000  0.000000
       5    0.000000  0.000000  0.000000  0.000000  0.046692  0.000000
       6    0.000000  0.000000  0.000000  0.000000  0.000000  0.033552
-------------------------------------------------------------------------------

  Mechanical properties :

-------------------------------------------------------------------------------
  Convention :                    Reuss         Voigt         Hill
-------------------------------------------------------------------------------
  Bulk  Modulus (GPa)     =      52.26877      52.34208      52.30543
  Shear Modulus (GPa)     =      23.74595      24.16202      23.95398
-------------------------------------------------------------------------------
  Velocity S-wave (km/s)  =       2.81873       2.84332       2.83105
  Velocity P-wave (km/s)  =       5.29928       5.31907       5.30919
-------------------------------------------------------------------------------
  Compressibility (1/GPa) =    0.01913188
-------------------------------------------------------------------------------
  Stress axis :                     x             y             z
-------------------------------------------------------------------------------
  Youngs Moduli (GPa)     =      57.15312      61.46423      55.64301
-------------------------------------------------------------------------------
  Poissons Ratio (x)      =                     0.26607       0.34268
  Poissons Ratio (y)      =       0.24741                     0.32361
  Poissons Ratio (z)      =       0.35198       0.35746
-------------------------------------------------------------------------------


  Piezoelectric Strain Matrix: (Units=C/m**2)

-------------------------------------------------------------------------------
  Indices      1         2         3         4         5         6    
-------------------------------------------------------------------------------
       x     0.00000   0.00000   0.00000   0.00000   0.00000   0.00000
       y     0.00000   0.00000   0.00000   0.00000   0.00000   0.00000
       z     0.00000   0.00000   0.00000   0.00000   0.00000   0.00000
-------------------------------------------------------------------------------


  Piezoelectric Stress Matrix: (Units=10**-11 C/N)

-------------------------------------------------------------------------------
  Indices      1         2         3         4         5         6    
-------------------------------------------------------------------------------
       x     0.00000   0.00000   0.00000   0.00000   0.00000   0.00000
       y     0.00000   0.00000   0.00000   0.00000   0.00000   0.00000
       z     0.00000   0.00000   0.00000   0.00000   0.00000   0.00000
-------------------------------------------------------------------------------


  Static dielectric constant tensor : 

-------------------------------------------------------------------------------
              x         y         z
-------------------------------------------------------------------------------
       x     3.65869   0.00000   0.00000
       y     0.00000   3.68470   0.00000
       z     0.00000   0.00000   3.45420
--------------------------------------------------------------------------------

  High frequency dielectric constant tensor : 

-------------------------------------------------------------------------------
              x         y         z
-------------------------------------------------------------------------------
       x     1.54658   0.00000   0.00000
       y     0.00000   1.54793   0.00000
       z     0.00000   0.00000   1.54470
-------------------------------------------------------------------------------

  Static refractive indices : 

-------------------------------------------------------------------------------
    1 =    1.85855      2 =    1.91277      3 =    1.91956
-------------------------------------------------------------------------------

  High frequency refractive indices : 

-------------------------------------------------------------------------------
    1 =    1.24286      2 =    1.24362      3 =    1.24416
-------------------------------------------------------------------------------


  Time to end of optimisation =       0.1274 seconds


  Peak dynamic memory used =       0.73 MB 


  Timing analysis for GULP :

--------------------------------------------------------------------------------
  Task / Subroutine                                          Time (Seconds)
--------------------------------------------------------------------------------
  Calculation of reciprocal space energy and derivatives          0.0026
  Calculation of reciprocal space energy using symmetry           0.0042
  Calculation of real space energy and derivatives                0.0381
  Calculation of real space energy using symmetry                 0.0782
  Symmetry generation of equivalent positions                     0.0004
--------------------------------------------------------------------------------
  Total CPU time                                                  0.1274
--------------------------------------------------------------------------------


  CIF file written as perov.cif                                               


  Job Finished at 09:42.51  6th April      2017                               

