********************************************************************************
*                       GENERAL UTILITY LATTICE PROGRAM                        *
*                                 Julian Gale                                  *
*                      Nanochemistry Research Institute                        *
*                           Department of Chemistry                            *
*                    Curtin University, Western Australia                      *
********************************************************************************
* Version = 4.3.2 * Last modified =  3rd March 2015                            *
********************************************************************************
*  optimise     - perform optimisation run                                     *
*  cell_only    - only optimise unit cell                                      *
*  property     - calculate properties for final geometry                      *
********************************************************************************

  Job Started  at 09:42.58  6th April      2017                               

  Number of CPUs =     1


  Total number of configurations input =   1

********************************************************************************
*  Input for Configuration =   1                                               *
********************************************************************************

  Formula = K4Ca4F12                                                    

  Number of irreducible atoms/shells =       6


  Total number atoms/shells =      32

  Dimensionality = 3               :  Bulk   


  Symmetry :

  Crystal family                   :  Orthorhombic
  Crystal class  (Groth - 1921)    :  Orthorhombic Bipyramidal             

  Space group (centrosymmetric)    :  P N M A         

  Patterson group                  :  P m m m  

  Cartesian lattice vectors (Angstroms) :

        6.223500    0.000000    0.000000
        0.000000    8.710300    0.000000
        0.000000    0.000000    6.118000

  Cell parameters (Angstroms/Degrees):

  a =       6.2235    alpha =  90.0000
  b =       8.7103    beta  =  90.0000
  c =       6.1180    gamma =  90.0000

  Initial cell volume =         331.647921 Angs**3

  Temperature of configuration =  0.000     K 

  Pressure of configuration =         0.000 GPa 

  Fractional coordinates of asymmetric unit :

--------------------------------------------------------------------------------
   No.  Atomic       x           y          z         Charge      Occupancy
        Label      (Frac)      (Frac)     (Frac)        (e)         (Frac)  
--------------------------------------------------------------------------------
      1 K     c    0.042000    0.250000    0.490600     1.20000    1.000000    
      2 Ca    c    0.000000    0.000000    0.000000     1.80000    1.000000    
      3 F     c    0.471500    0.250000    0.581200     0.37800    1.000000    
      4 F     c    0.291600    0.040400    0.206800     0.37800    1.000000    
      5 F     s    0.471500    0.250000    0.581200    -1.37800    1.000000    
      6 F     s    0.291600    0.040400    0.206800    -1.37800    1.000000    
--------------------------------------------------------------------------------



********************************************************************************
*  General input information                                                   *
********************************************************************************

  Species output for all configurations : 

--------------------------------------------------------------------------------
  Species    Type    Atomic    Atomic    Charge       Radii (Angs)     Library
                     Number     Mass       (e)     Cova   Ionic  VDW   Symbol
--------------------------------------------------------------------------------
    K        Core       19      39.10   1.200000   1.330  0.000  2.800          
    Ca       Core       20      40.08   1.800000   0.990  0.000  2.750          
    F        Core        9      19.00   0.378000   0.710  0.000  1.300          
    F        Shell       9       0.00  -1.378000   0.710  0.000  1.300          
--------------------------------------------------------------------------------


  Lattice summation method               =    Ewald          (3-D)
                                         =    Parry          (2-D)
                                         =    Saunders et al (1-D)
  Accuracy factor for lattice sums       =   12.000


  Time limit = Infinity

  Maximum range for interatomic potentials =    100000.000000 Angstroms

  General interatomic potentials :

--------------------------------------------------------------------------------
Atom  Types   Potential         A         B         C         D     Cutoffs(Ang)
  1     2                                                            Min    Max 
--------------------------------------------------------------------------------
K    c K    c Buckingham    0.219E+04 0.192      0.00      0.00     0.000 30.000
Ca   c F    s Buckingham    0.148E+04 0.266      0.00      0.00     0.000 30.000
F    s F    s Buckingham     912.     0.271      13.8      0.00     0.000 30.000
K    c F    s Buckingham    0.352E+04 0.267      0.00      0.00     0.000 30.000
F    c F    s Spring (c-s)   24.3      0.00      0.00      0.00     0.000  0.800
--------------------------------------------------------------------------------

********************************************************************************
*  Output for configuration   1                                                *
********************************************************************************


  Components of energy : 

--------------------------------------------------------------------------------
  Interatomic potentials     =          10.64736838 eV
  Monopole - monopole (real) =         -69.16799036 eV
  Monopole - monopole (recip)=         -85.27051403 eV
  Monopole - monopole (total)=        -154.43850439 eV
--------------------------------------------------------------------------------
  Total lattice energy       =        -143.79113601 eV
--------------------------------------------------------------------------------
  Total lattice energy       =          -13873.6466 kJ/(mole unit cells)
--------------------------------------------------------------------------------


  Number of variables =        3

  Maximum number of calculations  =          1000
  Maximum Hessian update interval =            10
  Maximum step size               =   1.000000000
  Maximum parameter tolerance     =   0.000010000
  Maximum function  tolerance     =   0.000010000
  Maximum gradient  tolerance     =   0.001000000
  Maximum gradient  component     =   0.010000000

  Symmetry constrained optimisation

  Symmetry used for second derivatives

  Cell parameters to be optimised using strains

  Newton-Raphson optimiser to be used

  BFGS hessian update to be used

  Start of bulk optimisation :

  Cycle:      0 Energy:      -143.791136  Gnorm:     10.587234  CPU:    0.014
  ** Hessian calculated **
  Cycle:      1 Energy:      -145.581275  Gnorm:      2.429039  CPU:    0.029
  Cycle:      2 Energy:      -145.641864  Gnorm:      0.724487  CPU:    0.044
  Cycle:      3 Energy:      -145.649398  Gnorm:      0.173960  CPU:    0.063
  Cycle:      4 Energy:      -145.649905  Gnorm:      0.001891  CPU:    0.079


  **** Optimisation achieved ****


  Final energy =    -145.64990545 eV
  Final Gnorm  =       0.00005947

  Components of energy : 

--------------------------------------------------------------------------------
  Interatomic potentials     =          18.70710833 eV
  Monopole - monopole (real) =         -73.60706850 eV
  Monopole - monopole (recip)=         -90.74994528 eV
  Monopole - monopole (total)=        -164.35701378 eV
--------------------------------------------------------------------------------
  Total lattice energy       =        -145.64990545 eV
--------------------------------------------------------------------------------
  Total lattice energy       =          -14052.9894 kJ/(mole unit cells)
--------------------------------------------------------------------------------

  Final asymmetric unit coordinates :

--------------------------------------------------------------------------------
   No.  Atomic        x           y           z         Radius
        Label       (Frac)      (Frac)      (Frac)       (Angs) 
--------------------------------------------------------------------------------
     1  K     c     0.042000    0.250000    0.490600    0.000000
     2  Ca    c     0.000000    0.000000    0.000000    0.000000
     3  F     c     0.471500    0.250000    0.581200    0.000000
     4  F     c     0.291600    0.040400    0.206800    0.000000
     5  F     s     0.471500    0.250000    0.581200    0.000000
     6  F     s     0.291600    0.040400    0.206800    0.000000
--------------------------------------------------------------------------------

  Final Cartesian lattice vectors (Angstroms) :

        5.868441    0.000000    0.000000
        0.000000    8.141152    0.000000
        0.000000    0.000000    5.758717


  Final cell parameters and derivatives :

--------------------------------------------------------------------------------
       a            5.868441 Angstrom     dE/de1(xx)    -0.000063 eV/strain
       b            8.141152 Angstrom     dE/de2(yy)    -0.000153 eV/strain
       c            5.758717 Angstrom     dE/de3(zz)    -0.000067 eV/strain
       alpha       90.000000 Degrees      dE/de4(yz)     0.000000 eV/strain
       beta        90.000000 Degrees      dE/de5(xz)     0.000000 eV/strain
       gamma       90.000000 Degrees      dE/de6(xy)     0.000000 eV/strain
--------------------------------------------------------------------------------

  Primitive cell volume =           275.127690 Angs**3

  Density of cell =      3.287722 g/cm**3

  Non-primitive cell volume =           275.127690 Angs**3


  Final internal derivatives :

--------------------------------------------------------------------------------
   No.  Atomic          a             b             c           Radius
        Label          (eV)          (eV)          (eV)        (eV/Angs)
--------------------------------------------------------------------------------
      1 K     c       0.000000      0.000000      0.000000      0.000000
      2 Ca    c       0.000000      0.000000      0.000000      0.000000
      3 F     c       0.000000      0.000000      0.000000      0.000000
      4 F     c       0.000000      0.000000      0.000000      0.000000
      5 F     s       0.000000      0.000000      0.000000      0.000000
      6 F     s       0.000000      0.000000      0.000000      0.000000
--------------------------------------------------------------------------------
  Maximum abs         0.000000      0.000000      0.000000      0.000000
--------------------------------------------------------------------------------


  Born effective charge tensors : 

-------------------------------------------------------------------------------
  Atom             x           y             z
-------------------------------------------------------------------------------
   1 K     x       1.1176      0.0000     -0.0364
           y       0.0000      1.1605      0.0000
           z      -0.0397      0.0000      1.1070
-------------------------------------------------------------------------------
   2 Ca    x       1.5488      0.0121     -0.0138
           y       0.0041      1.5158     -0.0044
           z       0.0012      0.0152      1.5488
-------------------------------------------------------------------------------
   3 F     x      -0.8511      0.0000      0.0179
           y       0.0000     -0.9417      0.0000
           z       0.0266      0.0000     -0.8283
-------------------------------------------------------------------------------
   4 F     x      -0.9076      0.0213     -0.0501
           y       0.0275     -0.8673     -0.0260
           z      -0.0486     -0.0269     -0.9138
-------------------------------------------------------------------------------




  Elastic Constant Matrix: (Units=GPa)

-------------------------------------------------------------------------------
  Indices      1         2         3         4         5         6    
-------------------------------------------------------------------------------
       1    110.2054   47.3879   49.8082    0.0000    0.0000    0.0000
       2     47.3879  117.7025   51.6469    0.0000    0.0000    0.0000
       3     49.8082   51.6469  116.7587    0.0000    0.0000    0.0000
       4      0.0000    0.0000    0.0000   37.1321    0.0000    0.0000
       5      0.0000    0.0000    0.0000    0.0000   31.4587    0.0000
       6      0.0000    0.0000    0.0000    0.0000    0.0000   42.5175
-------------------------------------------------------------------------------


  Elastic Compliance Matrix: (Units=1/GPa)

-------------------------------------------------------------------------------
  Indices      1         2         3         4         5         6    
-------------------------------------------------------------------------------
       1    0.012168 -0.003253 -0.003752  0.000000  0.000000  0.000000
       2   -0.003253  0.011412 -0.003660  0.000000  0.000000  0.000000
       3   -0.003752 -0.003660  0.011784  0.000000  0.000000  0.000000
       4    0.000000  0.000000  0.000000  0.026931  0.000000  0.000000
       5    0.000000  0.000000  0.000000  0.000000  0.031788  0.000000
       6    0.000000  0.000000  0.000000  0.000000  0.000000  0.023520
-------------------------------------------------------------------------------

  Mechanical properties :

-------------------------------------------------------------------------------
  Convention :                    Reuss         Voigt         Hill
-------------------------------------------------------------------------------
  Bulk  Modulus (GPa)     =      71.25411      71.37250      71.31330
  Shear Modulus (GPa)     =      34.81629      35.27658      35.04644
-------------------------------------------------------------------------------
  Velocity S-wave (km/s)  =       3.25420       3.27564       3.26493
  Velocity P-wave (km/s)  =       5.98268       6.00127       5.99198
-------------------------------------------------------------------------------
  Compressibility (1/GPa) =    0.01403428
-------------------------------------------------------------------------------
  Stress axis :                     x             y             z
-------------------------------------------------------------------------------
  Youngs Moduli (GPa)     =      82.17996      87.62986      84.85812
-------------------------------------------------------------------------------
  Poissons Ratio (x)      =                     0.28503       0.31840
  Poissons Ratio (y)      =       0.26731                     0.31060
  Poissons Ratio (z)      =       0.30835       0.32075
-------------------------------------------------------------------------------


  Piezoelectric Strain Matrix: (Units=C/m**2)

-------------------------------------------------------------------------------
  Indices      1         2         3         4         5         6    
-------------------------------------------------------------------------------
       x     0.00000   0.00000   0.00000   0.00000   0.00000   0.00000
       y     0.00000   0.00000   0.00000   0.00000   0.00000   0.00000
       z     0.00000   0.00000   0.00000   0.00000   0.00000   0.00000
-------------------------------------------------------------------------------


  Piezoelectric Stress Matrix: (Units=10**-11 C/N)

-------------------------------------------------------------------------------
  Indices      1         2         3         4         5         6    
-------------------------------------------------------------------------------
       x     0.00000   0.00000   0.00000   0.00000   0.00000   0.00000
       y     0.00000   0.00000   0.00000   0.00000   0.00000   0.00000
       z     0.00000   0.00000   0.00000   0.00000   0.00000   0.00000
-------------------------------------------------------------------------------


  Static dielectric constant tensor : 

-------------------------------------------------------------------------------
              x         y         z
-------------------------------------------------------------------------------
       x     4.28887   0.00000   0.00000
       y     0.00000   4.80028   0.00000
       z     0.00000   0.00000   4.04138
--------------------------------------------------------------------------------

  High frequency dielectric constant tensor : 

-------------------------------------------------------------------------------
              x         y         z
-------------------------------------------------------------------------------
       x     1.60035   0.00000   0.00000
       y     0.00000   1.60232   0.00000
       z     0.00000   0.00000   1.59806
-------------------------------------------------------------------------------

  Static refractive indices : 

-------------------------------------------------------------------------------
    1 =    2.01032      2 =    2.07096      3 =    2.19095
-------------------------------------------------------------------------------

  High frequency refractive indices : 

-------------------------------------------------------------------------------
    1 =    1.26414      2 =    1.26505      3 =    1.26583
-------------------------------------------------------------------------------


  Time to end of optimisation =       0.1397 seconds


  Peak dynamic memory used =       0.73 MB 


  Timing analysis for GULP :

--------------------------------------------------------------------------------
  Task / Subroutine                                          Time (Seconds)
--------------------------------------------------------------------------------
  Calculation of reciprocal space energy and derivatives          0.0026
  Calculation of reciprocal space energy using symmetry           0.0044
  Calculation of real space energy and derivatives                0.0414
  Calculation of real space energy using symmetry                 0.0870
  Symmetry generation of equivalent positions                     0.0004
--------------------------------------------------------------------------------
  Total CPU time                                                  0.1397
--------------------------------------------------------------------------------


  CIF file written as perov.cif                                               


  Job Finished at 09:42.58  6th April      2017                               

