********************************************************************************
*                       GENERAL UTILITY LATTICE PROGRAM                        *
*                                 Julian Gale                                  *
*                      Nanochemistry Research Institute                        *
*                           Department of Chemistry                            *
*                    Curtin University, Western Australia                      *
********************************************************************************
* Version = 4.3.2 * Last modified =  3rd March 2015                            *
********************************************************************************
*  optimise     - perform optimisation run                                     *
*  cell_only    - only optimise unit cell                                      *
*  property     - calculate properties for final geometry                      *
********************************************************************************

  Job Started  at 09:42.59  6th April      2017                               

  Number of CPUs =     1


  Total number of configurations input =   1

********************************************************************************
*  Input for Configuration =   1                                               *
********************************************************************************

  Formula = K4Ca4F12                                                    

  Number of irreducible atoms/shells =       6


  Total number atoms/shells =      32

  Dimensionality = 3               :  Bulk   


  Symmetry :

  Crystal family                   :  Orthorhombic
  Crystal class  (Groth - 1921)    :  Orthorhombic Bipyramidal             

  Space group (centrosymmetric)    :  P N M A         

  Patterson group                  :  P m m m  

  Cartesian lattice vectors (Angstroms) :

        6.223500    0.000000    0.000000
        0.000000    8.710300    0.000000
        0.000000    0.000000    6.118000

  Cell parameters (Angstroms/Degrees):

  a =       6.2235    alpha =  90.0000
  b =       8.7103    beta  =  90.0000
  c =       6.1180    gamma =  90.0000

  Initial cell volume =         331.647921 Angs**3

  Temperature of configuration =  0.000     K 

  Pressure of configuration =         0.000 GPa 

  Fractional coordinates of asymmetric unit :

--------------------------------------------------------------------------------
   No.  Atomic       x           y          z         Charge      Occupancy
        Label      (Frac)      (Frac)     (Frac)        (e)         (Frac)  
--------------------------------------------------------------------------------
      1 K     c    0.042000    0.250000    0.490600     1.20000    1.000000    
      2 Ca    c    0.000000    0.000000    0.000000     2.50000    1.000000    
      3 F     c    0.471500    0.250000    0.581200     0.37800    1.000000    
      4 F     c    0.291600    0.040400    0.206800     0.37800    1.000000    
      5 F     s    0.471500    0.250000    0.581200    -1.61133    1.000000    
      6 F     s    0.291600    0.040400    0.206800    -1.61133    1.000000    
--------------------------------------------------------------------------------



********************************************************************************
*  General input information                                                   *
********************************************************************************

  Species output for all configurations : 

--------------------------------------------------------------------------------
  Species    Type    Atomic    Atomic    Charge       Radii (Angs)     Library
                     Number     Mass       (e)     Cova   Ionic  VDW   Symbol
--------------------------------------------------------------------------------
    K        Core       19      39.10   1.200000   1.330  0.000  2.800          
    Ca       Core       20      40.08   2.500000   0.990  0.000  2.750          
    F        Core        9      19.00   0.378000   0.710  0.000  1.300          
    F        Shell       9       0.00  -1.611333   0.710  0.000  1.300          
--------------------------------------------------------------------------------


  Lattice summation method               =    Ewald          (3-D)
                                         =    Parry          (2-D)
                                         =    Saunders et al (1-D)
  Accuracy factor for lattice sums       =   12.000


  Time limit = Infinity

  Maximum range for interatomic potentials =    100000.000000 Angstroms

  General interatomic potentials :

--------------------------------------------------------------------------------
Atom  Types   Potential         A         B         C         D     Cutoffs(Ang)
  1     2                                                            Min    Max 
--------------------------------------------------------------------------------
K    c K    c Buckingham    0.219E+04 0.192      0.00      0.00     0.000 30.000
Ca   c F    s Buckingham    0.148E+04 0.266      0.00      0.00     0.000 30.000
F    s F    s Buckingham     912.     0.271      13.8      0.00     0.000 30.000
K    c F    s Buckingham    0.352E+04 0.267      0.00      0.00     0.000 30.000
F    c F    s Spring (c-s)   33.3      0.00      0.00      0.00     0.000  0.800
--------------------------------------------------------------------------------

********************************************************************************
*  Output for configuration   1                                                *
********************************************************************************


  Components of energy : 

--------------------------------------------------------------------------------
  Interatomic potentials     =          10.64736838 eV
  Monopole - monopole (real) =        -111.39863979 eV
  Monopole - monopole (recip)=        -136.02876461 eV
  Monopole - monopole (total)=        -247.42740440 eV
--------------------------------------------------------------------------------
  Total lattice energy       =        -236.78003602 eV
--------------------------------------------------------------------------------
  Total lattice energy       =          -22845.6540 kJ/(mole unit cells)
--------------------------------------------------------------------------------


  Number of variables =        3

  Maximum number of calculations  =          1000
  Maximum Hessian update interval =            10
  Maximum step size               =   1.000000000
  Maximum parameter tolerance     =   0.000010000
  Maximum function  tolerance     =   0.000010000
  Maximum gradient  tolerance     =   0.001000000
  Maximum gradient  component     =   0.010000000

  Symmetry constrained optimisation

  Symmetry used for second derivatives

  Cell parameters to be optimised using strains

  Newton-Raphson optimiser to be used

  BFGS hessian update to be used

  Start of bulk optimisation :

  Cycle:      0 Energy:      -236.780036  Gnorm:     28.484181  CPU:    0.014
  ** Hessian calculated **
  Cycle:      1 Energy:      -248.215095  Gnorm:      4.468663  CPU:    0.039
  ** Hessian calculated **
  Cycle:      2 Energy:      -248.494077  Gnorm:      0.350193  CPU:    0.068
  Cycle:      3 Energy:      -248.495142  Gnorm:      0.046383  CPU:    0.086
  Cycle:      4 Energy:      -248.495160  Gnorm:      0.000249  CPU:    0.104


  **** Optimisation achieved ****


  Final energy =    -248.49515978 eV
  Final Gnorm  =       0.00002180

  Components of energy : 

--------------------------------------------------------------------------------
  Interatomic potentials     =          34.46051634 eV
  Monopole - monopole (real) =        -127.38894493 eV
  Monopole - monopole (recip)=        -155.56673119 eV
  Monopole - monopole (total)=        -282.95567612 eV
--------------------------------------------------------------------------------
  Total lattice energy       =        -248.49515978 eV
--------------------------------------------------------------------------------
  Total lattice energy       =          -23975.9843 kJ/(mole unit cells)
--------------------------------------------------------------------------------

  Final asymmetric unit coordinates :

--------------------------------------------------------------------------------
   No.  Atomic        x           y           z         Radius
        Label       (Frac)      (Frac)      (Frac)       (Angs) 
--------------------------------------------------------------------------------
     1  K     c     0.042000    0.250000    0.490600    0.000000
     2  Ca    c     0.000000    0.000000    0.000000    0.000000
     3  F     c     0.471500    0.250000    0.581200    0.000000
     4  F     c     0.291600    0.040400    0.206800    0.000000
     5  F     s     0.471500    0.250000    0.581200    0.000000
     6  F     s     0.291600    0.040400    0.206800    0.000000
--------------------------------------------------------------------------------

  Final Cartesian lattice vectors (Angstroms) :

        5.462084    0.000000    0.000000
        0.000000    7.572651    0.000000
        0.000000    0.000000    5.360557


  Final cell parameters and derivatives :

--------------------------------------------------------------------------------
       a            5.462084 Angstrom     dE/de1(xx)     0.000042 eV/strain
       b            7.572651 Angstrom     dE/de2(yy)     0.000014 eV/strain
       c            5.360557 Angstrom     dE/de3(zz)    -0.000048 eV/strain
       alpha       90.000000 Degrees      dE/de4(yz)     0.000000 eV/strain
       beta        90.000000 Degrees      dE/de5(xz)     0.000000 eV/strain
       gamma       90.000000 Degrees      dE/de6(xy)     0.000000 eV/strain
--------------------------------------------------------------------------------

  Primitive cell volume =           221.725812 Angs**3

  Density of cell =      4.079558 g/cm**3

  Non-primitive cell volume =           221.725812 Angs**3


  Final internal derivatives :

--------------------------------------------------------------------------------
   No.  Atomic          a             b             c           Radius
        Label          (eV)          (eV)          (eV)        (eV/Angs)
--------------------------------------------------------------------------------
      1 K     c       0.000000      0.000000      0.000000      0.000000
      2 Ca    c       0.000000      0.000000      0.000000      0.000000
      3 F     c       0.000000      0.000000      0.000000      0.000000
      4 F     c       0.000000      0.000000      0.000000      0.000000
      5 F     s       0.000000      0.000000      0.000000      0.000000
      6 F     s       0.000000      0.000000      0.000000      0.000000
--------------------------------------------------------------------------------
  Maximum abs         0.000000      0.000000      0.000000      0.000000
--------------------------------------------------------------------------------


  Born effective charge tensors : 

-------------------------------------------------------------------------------
  Atom             x           y             z
-------------------------------------------------------------------------------
   1 K     x       0.9749      0.0000     -0.0677
           y       0.0000      1.0395      0.0000
           z      -0.0658      0.0000      0.9624
-------------------------------------------------------------------------------
   2 Ca    x       2.3249      0.0150     -0.0608
           y      -0.0118      2.2725     -0.0495
           z       0.0270      0.0602      2.3260
-------------------------------------------------------------------------------
   3 F     x      -0.9574      0.0000      0.0317
           y       0.0000     -1.3559      0.0000
           z       0.0622      0.0000     -0.9307
-------------------------------------------------------------------------------
   4 F     x      -1.1712      0.0294     -0.2077
           y       0.0365     -0.9781     -0.0234
           z      -0.2042     -0.0217     -1.1788
-------------------------------------------------------------------------------




  Elastic Constant Matrix: (Units=GPa)

-------------------------------------------------------------------------------
  Indices      1         2         3         4         5         6    
-------------------------------------------------------------------------------
       1    216.1730  100.3627   83.3547    0.0000    0.0000    0.0000
       2    100.3627  209.4577  112.4337    0.0000    0.0000    0.0000
       3     83.3547  112.4337  233.5287    0.0000    0.0000    0.0000
       4      0.0000    0.0000    0.0000   82.9038    0.0000    0.0000
       5      0.0000    0.0000    0.0000    0.0000   44.7071    0.0000
       6      0.0000    0.0000    0.0000    0.0000    0.0000   94.6931
-------------------------------------------------------------------------------


  Elastic Compliance Matrix: (Units=1/GPa)

-------------------------------------------------------------------------------
  Indices      1         2         3         4         5         6    
-------------------------------------------------------------------------------
       1    0.006133 -0.002378 -0.001044  0.000000  0.000000  0.000000
       2   -0.002378  0.007360 -0.002695  0.000000  0.000000  0.000000
       3   -0.001044 -0.002695  0.005952  0.000000  0.000000  0.000000
       4    0.000000  0.000000  0.000000  0.012062  0.000000  0.000000
       5    0.000000  0.000000  0.000000  0.000000  0.022368  0.000000
       6    0.000000  0.000000  0.000000  0.000000  0.000000  0.010560
-------------------------------------------------------------------------------

  Mechanical properties :

-------------------------------------------------------------------------------
  Convention :                    Reuss         Voigt         Hill
-------------------------------------------------------------------------------
  Bulk  Modulus (GPa)     =     138.67204     139.05128     138.86166
  Shear Modulus (GPa)     =      63.23287      68.66135      65.94711
-------------------------------------------------------------------------------
  Velocity S-wave (km/s)  =       3.93700       4.10251       4.02060
  Velocity P-wave (km/s)  =       7.39314       7.51836       7.45601
-------------------------------------------------------------------------------
  Compressibility (1/GPa) =    0.00721126
-------------------------------------------------------------------------------
  Stress axis :                     x             y             z
-------------------------------------------------------------------------------
  Youngs Moduli (GPa)     =     163.06479     135.86570     168.00507
-------------------------------------------------------------------------------
  Poissons Ratio (x)      =                     0.32309       0.17540
  Poissons Ratio (y)      =       0.38777                     0.45274
  Poissons Ratio (z)      =       0.17024       0.36613
-------------------------------------------------------------------------------


  Piezoelectric Strain Matrix: (Units=C/m**2)

-------------------------------------------------------------------------------
  Indices      1         2         3         4         5         6    
-------------------------------------------------------------------------------
       x     0.00000   0.00000   0.00000   0.00000   0.00000   0.00000
       y     0.00000   0.00000   0.00000   0.00000   0.00000   0.00000
       z     0.00000   0.00000   0.00000   0.00000   0.00000   0.00000
-------------------------------------------------------------------------------


  Piezoelectric Stress Matrix: (Units=10**-11 C/N)

-------------------------------------------------------------------------------
  Indices      1         2         3         4         5         6    
-------------------------------------------------------------------------------
       x     0.00000   0.00000   0.00000   0.00000   0.00000   0.00000
       y     0.00000   0.00000   0.00000   0.00000   0.00000   0.00000
       z     0.00000   0.00000   0.00000   0.00000   0.00000   0.00000
-------------------------------------------------------------------------------


  Static dielectric constant tensor : 

-------------------------------------------------------------------------------
              x         y         z
-------------------------------------------------------------------------------
       x     5.15193   0.00000   0.00000
       y     0.00000   4.88406   0.00000
       z     0.00000   0.00000   4.90581
--------------------------------------------------------------------------------

  High frequency dielectric constant tensor : 

-------------------------------------------------------------------------------
              x         y         z
-------------------------------------------------------------------------------
       x     1.74737   0.00000   0.00000
       y     0.00000   1.74995   0.00000
       z     0.00000   0.00000   1.74460
-------------------------------------------------------------------------------

  Static refractive indices : 

-------------------------------------------------------------------------------
    1 =    2.20999      2 =    2.21491      3 =    2.26979
-------------------------------------------------------------------------------

  High frequency refractive indices : 

-------------------------------------------------------------------------------
    1 =    1.32083      2 =    1.32188      3 =    1.32286
-------------------------------------------------------------------------------


  Time to end of optimisation =       0.1752 seconds


  Peak dynamic memory used =       0.73 MB 


  Timing analysis for GULP :

--------------------------------------------------------------------------------
  Task / Subroutine                                          Time (Seconds)
--------------------------------------------------------------------------------
  Calculation of reciprocal space energy and derivatives          0.0027
  Calculation of reciprocal space energy using symmetry           0.0051
  Calculation of real space energy and derivatives                0.0493
  Calculation of real space energy using symmetry                 0.1130
  Symmetry generation of equivalent positions                     0.0004
--------------------------------------------------------------------------------
  Total CPU time                                                  0.1752
--------------------------------------------------------------------------------


  CIF file written as perov.cif                                               


  Job Finished at 09:43.00  6th April      2017                               

