********************************************************************************
*                       GENERAL UTILITY LATTICE PROGRAM                        *
*                                 Julian Gale                                  *
*                      Nanochemistry Research Institute                        *
*                           Department of Chemistry                            *
*                    Curtin University, Western Australia                      *
********************************************************************************
* Version = 4.3.2 * Last modified =  3rd March 2015                            *
********************************************************************************
*  optimise     - perform optimisation run                                     *
*  cell_only    - only optimise unit cell                                      *
*  property     - calculate properties for final geometry                      *
********************************************************************************

  Job Started  at 09:26.37  6th April      2017                               

  Number of CPUs =     1


  Total number of configurations input =   1

********************************************************************************
*  Input for Configuration =   1                                               *
********************************************************************************

  Formula = Tb2Ba2O6                                                    

  Number of irreducible atoms/shells =       4


  Total number atoms/shells =      16

  Dimensionality = 3               :  Bulk   


  Symmetry :

  Crystal family                   :  Hexagonal   
  Crystal class  (Groth - 1921)    :  Ditrigonal Scalenohedral             

  Space group (centrosymmetric)    :  R -3 C          

  Patterson group                  :  R -3 m   

  Cartesian lattice vectors (Angstroms) :

        3.039900    1.755087    4.922700
       -3.039900    1.755087    4.922700
        0.000000   -3.510174    4.922700

  Primitive cell parameters :            Full cell parameters :

  a =   6.0460    alpha =  60.3700       a =   6.0798    alpha =  90.0000
  b =   6.0460    beta  =  60.3700       b =   6.0798    beta  =  90.0000
  c =   6.0460    gamma =  60.3700       c =  14.7681    gamma = 120.0000

  Initial volumes (Angstroms**3):

  Primitive cell =         157.584170    Full cell =         472.752509

  Temperature of configuration =  0.000     K 

  Pressure of configuration =         0.000 GPa 

  Fractional coordinates of asymmetric unit :

--------------------------------------------------------------------------------
   No.  Atomic       x           y          z         Charge      Occupancy
        Label      (Frac)      (Frac)     (Frac)        (e)         (Frac)  
--------------------------------------------------------------------------------
      1 Tb    c    0.000000    0.000000    0.000000     1.20000    1.000000    
      2 Ba    c    0.000000    0.000000    0.250000     1.50000    1.000000    
      3 O     c    0.462400    0.000000    0.250000     0.37800    1.000000    
      4 O     s    0.462400    0.000000    0.250000    -1.27800    1.000000    
--------------------------------------------------------------------------------


  Constraints : 

--------------------------------------------------------------------------------
  Constraint no.      Unconstrained     Constrained    Coefficient    Offset
                         Variable         Variable
--------------------------------------------------------------------------------
           1              Strain 1        Strain 2       1.00000      0.0000
--------------------------------------------------------------------------------


********************************************************************************
*  General input information                                                   *
********************************************************************************

  Species output for all configurations : 

--------------------------------------------------------------------------------
  Species    Type    Atomic    Atomic    Charge       Radii (Angs)     Library
                     Number     Mass       (e)     Cova   Ionic  VDW   Symbol
--------------------------------------------------------------------------------
    Tb       Core       65     158.93   1.200000   1.760  0.000  2.630          
    Ba       Core       56     137.33   1.500000   1.340  0.000  2.000          
    O        Core        8      16.00   0.378000   0.730  0.000  1.360          
    O        Shell       8       0.00  -1.278000   0.730  0.000  1.360          
--------------------------------------------------------------------------------


  Lattice summation method               =    Ewald          (3-D)
                                         =    Parry          (2-D)
                                         =    Saunders et al (1-D)
  Accuracy factor for lattice sums       =   12.000


  Time limit = Infinity

  Maximum range for interatomic potentials =    100000.000000 Angstroms

  General interatomic potentials :

--------------------------------------------------------------------------------
Atom  Types   Potential         A         B         C         D     Cutoffs(Ang)
  1     2                                                            Min    Max 
--------------------------------------------------------------------------------
Ba   c Ba   c Buckingham    0.219E+04 0.192      0.00      0.00     0.000 10.000
Tb   c O    s Buckingham    0.148E+04 0.266      0.00      0.00     0.000 10.000
O    s O    s Buckingham     912.     0.271      13.8      0.00     0.000 10.000
Ba   c O    s Buckingham    0.352E+04 0.267      0.00      0.00     0.000 10.000
O    c O    s Spring (c-s)   20.9      0.00      0.00      0.00     0.000  0.800
--------------------------------------------------------------------------------

********************************************************************************
*  Output for configuration   1                                                *
********************************************************************************


  Components of energy : 

--------------------------------------------------------------------------------
  Interatomic potentials     =           6.38527986 eV
  Monopole - monopole (real) =         -19.13746566 eV
  Monopole - monopole (recip)=         -40.58886708 eV
  Monopole - monopole (total)=         -59.72633274 eV
--------------------------------------------------------------------------------
  Total lattice energy : 
    Primitive unit cell      =         -53.34105288 eV
    Non-primitive unit cell  =        -160.02315864 eV
--------------------------------------------------------------------------------
  Total lattice energy (in kJmol-1): 
    Primitive unit cell      =           -5146.5962 kJ/(mole unit cells)
    Non-primitive unit cell  =          -15439.7886 kJ/(mole unit cells)
--------------------------------------------------------------------------------


  Number of variables =        2

  Maximum number of calculations  =          1000
  Maximum Hessian update interval =            10
  Maximum step size               =   1.000000000
  Maximum parameter tolerance     =   0.000010000
  Maximum function  tolerance     =   0.000010000
  Maximum gradient  tolerance     =   0.001000000
  Maximum gradient  component     =   0.010000000

  Symmetry constrained optimisation

  Symmetry used for second derivatives

  Cell parameters to be optimised using strains

  Newton-Raphson optimiser to be used

  BFGS hessian update to be used

  Start of bulk optimisation :

  Cycle:      0 Energy:       -53.341053  Gnorm:      1.001642  CPU:    0.007
  ** Hessian calculated **
  Cycle:      1 Energy:       -53.349692  Gnorm:      0.019354  CPU:    0.016


  **** Optimisation achieved ****


  Final energy =     -53.34969521 eV
  Final Gnorm  =       0.00055841

  Components of energy : 

--------------------------------------------------------------------------------
  Interatomic potentials     =           6.75983481 eV
  Monopole - monopole (real) =         -19.26252694 eV
  Monopole - monopole (recip)=         -40.84700308 eV
  Monopole - monopole (total)=         -60.10953002 eV
--------------------------------------------------------------------------------
  Total lattice energy : 
    Primitive unit cell      =         -53.34969521 eV
    Non-primitive unit cell  =        -160.04908564 eV
--------------------------------------------------------------------------------
  Total lattice energy (in kJmol-1): 
    Primitive unit cell      =           -5147.4301 kJ/(mole unit cells)
    Non-primitive unit cell  =          -15442.2902 kJ/(mole unit cells)
--------------------------------------------------------------------------------

  Final asymmetric unit coordinates :

--------------------------------------------------------------------------------
   No.  Atomic        x           y           z         Radius
        Label       (Frac)      (Frac)      (Frac)       (Angs) 
--------------------------------------------------------------------------------
     1  Tb    c     0.000000    0.000000    0.000000    0.000000
     2  Ba    c     0.000000    0.000000    0.250000    0.000000
     3  O     c     0.462400    0.000000    0.250000    0.000000
     4  O     s     0.462400    0.000000    0.250000    0.000000
--------------------------------------------------------------------------------

  Final Cartesian lattice vectors (Angstroms) :

        3.016937    1.741829    4.903806
       -3.016937    1.741829    4.903806
        0.000000   -3.483659    4.903806


  Final cell parameters and derivatives :

--------------------------------------------------------------------------------
       a            6.015247 Angstrom     dE/de1(xx)     0.001014 eV/strain
       b            6.015247 Angstrom     dE/de2(yy)     0.000000 eV/strain
       c            6.015247 Angstrom     dE/de3(zz)     0.000469 eV/strain
       alpha       60.204981 Degrees      dE/de4(yz)     0.000000 eV/strain
       beta        60.204981 Degrees      dE/de5(xz)     0.000000 eV/strain
       gamma       60.204981 Degrees      dE/de6(xy)     0.000000 eV/strain
--------------------------------------------------------------------------------

  Primitive cell volume =           154.616701 Angs**3

  Density of cell =      7.394625 g/cm**3

  Non-primitive lattice parameters :

  a    =     6.033874  b   =     6.033874  c    =    14.711418
  alpha=    90.000000  beta=    90.000000  gamma=   120.000000

  Non-primitive cell volume =           463.850103 Angs**3


  Final internal derivatives :

--------------------------------------------------------------------------------
   No.  Atomic          a             b             c           Radius
        Label          (eV)          (eV)          (eV)        (eV/Angs)
--------------------------------------------------------------------------------
      1 Tb    c       0.000000      0.000000      0.000000      0.000000
      2 Ba    c       0.000000      0.000000      0.000000      0.000000
      3 O     c       0.000000      0.000000      0.000000      0.000000
      4 O     s       0.000000      0.000000      0.000000      0.000000
--------------------------------------------------------------------------------
  Maximum abs         0.000000      0.000000      0.000000      0.000000
--------------------------------------------------------------------------------


  Born effective charge tensors : 

-------------------------------------------------------------------------------
  Atom             x           y             z
-------------------------------------------------------------------------------
   1 Tb    x       0.8190     -0.0011      0.0000
           y       0.0011      0.8190      0.0000
           z       0.0000      0.0000      0.8222
-------------------------------------------------------------------------------
   2 Ba    x       1.6355      0.0000      0.0000
           y       0.0000      1.6355      0.0000
           z       0.0000      0.0000      1.6620
-------------------------------------------------------------------------------
   3 O     x      -0.8968      0.0000      0.0000
           y       0.0000     -0.7395      0.1246
           z       0.0000      0.1251     -0.8281
-------------------------------------------------------------------------------




  Elastic Constant Matrix: (Units=GPa)

-------------------------------------------------------------------------------
  Indices      1         2         3         4         5         6    
-------------------------------------------------------------------------------
       1     58.7903   53.0677   35.9123   -0.3490    0.0000    0.0000
       2     53.0677   58.7903   35.9123    0.3490    0.0000    0.0000
       3     35.9123   35.9123   67.5021    0.0000    0.0000    0.0000
       4     -0.3490    0.3490    0.0000   28.0414    0.0000    0.0000
       5      0.0000    0.0000    0.0000    0.0000   28.0414   -0.3490
       6      0.0000    0.0000    0.0000    0.0000   -0.3490    2.8613
-------------------------------------------------------------------------------


  Elastic Compliance Matrix: (Units=1/GPa)

-------------------------------------------------------------------------------
  Indices      1         2         3         4         5         6    
-------------------------------------------------------------------------------
       1    0.094294 -0.080716 -0.007224  0.002178  0.000000  0.000000
       2   -0.080716  0.094294 -0.007224 -0.002178  0.000000  0.000000
       3   -0.007224 -0.007224  0.022501  0.000000  0.000000  0.000000
       4    0.002178 -0.002178  0.000000  0.035716  0.000000  0.000000
       5    0.000000  0.000000  0.000000  0.000000  0.035716  0.004356
       6    0.000000  0.000000  0.000000  0.000000  0.004356  0.350019
-------------------------------------------------------------------------------

  Mechanical properties :

-------------------------------------------------------------------------------
  Convention :                    Reuss         Voigt         Hill
-------------------------------------------------------------------------------
  Bulk  Modulus (GPa)     =      48.16509      48.31859      48.24184
  Shear Modulus (GPa)     =       6.02564      15.80155      10.91359
-------------------------------------------------------------------------------
  Velocity S-wave (km/s)  =       0.90270       1.46181       1.21486
  Velocity P-wave (km/s)  =       2.75681       3.06325       2.91406
-------------------------------------------------------------------------------
  Compressibility (1/GPa) =    0.02076193
-------------------------------------------------------------------------------
  Stress axis :                     x             y             z
-------------------------------------------------------------------------------
  Youngs Moduli (GPa)     =      10.60513      10.60513      44.44262
-------------------------------------------------------------------------------
  Poissons Ratio (x)      =                     0.85600       0.32105
  Poissons Ratio (y)      =       0.85600                     0.32105
  Poissons Ratio (z)      =       0.07661       0.07661
-------------------------------------------------------------------------------


  Piezoelectric Strain Matrix: (Units=C/m**2)

-------------------------------------------------------------------------------
  Indices      1         2         3         4         5         6    
-------------------------------------------------------------------------------
       x     0.00000   0.00000   0.00000   0.00000   0.00000   0.00000
       y     0.00000   0.00000   0.00000   0.00000   0.00000   0.00000
       z     0.00000   0.00000   0.00000   0.00000   0.00000   0.00000
-------------------------------------------------------------------------------


  Piezoelectric Stress Matrix: (Units=10**-11 C/N)

-------------------------------------------------------------------------------
  Indices      1         2         3         4         5         6    
-------------------------------------------------------------------------------
       x     0.00000   0.00000   0.00000   0.00000   0.00000   0.00000
       y     0.00000   0.00000   0.00000   0.00000   0.00000   0.00000
       z     0.00000   0.00000   0.00000   0.00000   0.00000   0.00000
-------------------------------------------------------------------------------


  Static dielectric constant tensor : 

-------------------------------------------------------------------------------
              x         y         z
-------------------------------------------------------------------------------
       x   180.11792   0.00000   0.00000
       y     0.00000 180.11791   0.00000
       z     0.00000   0.00000  -9.44572
--------------------------------------------------------------------------------

  High frequency dielectric constant tensor : 

-------------------------------------------------------------------------------
              x         y         z
-------------------------------------------------------------------------------
       x     1.54071   0.00000   0.00000
       y     0.00000   1.54071   0.00000
       z     0.00000   0.00000   1.54588
-------------------------------------------------------------------------------

  Static refractive indices : 

-------------------------------------------------------------------------------
    1 =   -3.07339      2 =   13.42080      3 =   13.42080
-------------------------------------------------------------------------------

  High frequency refractive indices : 

-------------------------------------------------------------------------------
    1 =    1.24125      2 =    1.24125      3 =    1.24333
-------------------------------------------------------------------------------


  Time to end of optimisation =       0.0356 seconds


  Peak dynamic memory used =       0.57 MB 


  Timing analysis for GULP :

--------------------------------------------------------------------------------
  Task / Subroutine                                          Time (Seconds)
--------------------------------------------------------------------------------
  Calculation of reciprocal space energy and derivatives          0.0008
  Calculation of reciprocal space energy using symmetry           0.0009
  Calculation of real space energy and derivatives                0.0100
  Calculation of real space energy using symmetry                 0.0206
  Symmetry generation of equivalent positions                     0.0002
--------------------------------------------------------------------------------
  Total CPU time                                                  0.0357
--------------------------------------------------------------------------------


  CIF file written as perov.cif                                               


  Job Finished at 09:26.37  6th April      2017                               

