********************************************************************************
*                       GENERAL UTILITY LATTICE PROGRAM                        *
*                                 Julian Gale                                  *
*                      Nanochemistry Research Institute                        *
*                           Department of Chemistry                            *
*                    Curtin University, Western Australia                      *
********************************************************************************
* Version = 4.3.2 * Last modified =  3rd March 2015                            *
********************************************************************************
*  optimise     - perform optimisation run                                     *
*  cell_only    - only optimise unit cell                                      *
*  property     - calculate properties for final geometry                      *
********************************************************************************

  Job Started  at 09:26.36  6th April      2017                               

  Number of CPUs =     1


  Total number of configurations input =   1

********************************************************************************
*  Input for Configuration =   1                                               *
********************************************************************************

  Formula = Tb2Ba2O6                                                    

  Number of irreducible atoms/shells =       4


  Total number atoms/shells =      16

  Dimensionality = 3               :  Bulk   


  Symmetry :

  Crystal family                   :  Hexagonal   
  Crystal class  (Groth - 1921)    :  Ditrigonal Scalenohedral             

  Space group (centrosymmetric)    :  R -3 C          

  Patterson group                  :  R -3 m   

  Cartesian lattice vectors (Angstroms) :

        3.039900    1.755087    4.922700
       -3.039900    1.755087    4.922700
        0.000000   -3.510174    4.922700

  Primitive cell parameters :            Full cell parameters :

  a =   6.0460    alpha =  60.3700       a =   6.0798    alpha =  90.0000
  b =   6.0460    beta  =  60.3700       b =   6.0798    beta  =  90.0000
  c =   6.0460    gamma =  60.3700       c =  14.7681    gamma = 120.0000

  Initial volumes (Angstroms**3):

  Primitive cell =         157.584170    Full cell =         472.752509

  Temperature of configuration =  0.000     K 

  Pressure of configuration =         0.000 GPa 

  Fractional coordinates of asymmetric unit :

--------------------------------------------------------------------------------
   No.  Atomic       x           y          z         Charge      Occupancy
        Label      (Frac)      (Frac)     (Frac)        (e)         (Frac)  
--------------------------------------------------------------------------------
      1 Tb    c    0.000000    0.000000    0.000000     0.90000    1.000000    
      2 Ba    c    0.000000    0.000000    0.250000     2.20000    1.000000    
      3 O     c    0.462400    0.000000    0.250000     0.37800    1.000000    
      4 O     s    0.462400    0.000000    0.250000    -1.41133    1.000000    
--------------------------------------------------------------------------------


  Constraints : 

--------------------------------------------------------------------------------
  Constraint no.      Unconstrained     Constrained    Coefficient    Offset
                         Variable         Variable
--------------------------------------------------------------------------------
           1              Strain 1        Strain 2       1.00000      0.0000
--------------------------------------------------------------------------------


********************************************************************************
*  General input information                                                   *
********************************************************************************

  Species output for all configurations : 

--------------------------------------------------------------------------------
  Species    Type    Atomic    Atomic    Charge       Radii (Angs)     Library
                     Number     Mass       (e)     Cova   Ionic  VDW   Symbol
--------------------------------------------------------------------------------
    Tb       Core       65     158.93   0.900000   1.760  0.000  2.630          
    Ba       Core       56     137.33   2.200000   1.340  0.000  2.000          
    O        Core        8      16.00   0.378000   0.730  0.000  1.360          
    O        Shell       8       0.00  -1.411333   0.730  0.000  1.360          
--------------------------------------------------------------------------------


  Lattice summation method               =    Ewald          (3-D)
                                         =    Parry          (2-D)
                                         =    Saunders et al (1-D)
  Accuracy factor for lattice sums       =   12.000


  Time limit = Infinity

  Maximum range for interatomic potentials =    100000.000000 Angstroms

  General interatomic potentials :

--------------------------------------------------------------------------------
Atom  Types   Potential         A         B         C         D     Cutoffs(Ang)
  1     2                                                            Min    Max 
--------------------------------------------------------------------------------
Ba   c Ba   c Buckingham    0.219E+04 0.192      0.00      0.00     0.000 10.000
Tb   c O    s Buckingham    0.148E+04 0.266      0.00      0.00     0.000 10.000
O    s O    s Buckingham     912.     0.271      13.8      0.00     0.000 10.000
Ba   c O    s Buckingham    0.352E+04 0.267      0.00      0.00     0.000 10.000
O    c O    s Spring (c-s)   25.5      0.00      0.00      0.00     0.000  0.800
--------------------------------------------------------------------------------

********************************************************************************
*  Output for configuration   1                                                *
********************************************************************************


  Components of energy : 

--------------------------------------------------------------------------------
  Interatomic potentials     =           6.38527986 eV
  Monopole - monopole (real) =         -21.70334740 eV
  Monopole - monopole (recip)=         -57.83244009 eV
  Monopole - monopole (total)=         -79.53578749 eV
--------------------------------------------------------------------------------
  Total lattice energy : 
    Primitive unit cell      =         -73.15050763 eV
    Non-primitive unit cell  =        -219.45152289 eV
--------------------------------------------------------------------------------
  Total lattice energy (in kJmol-1): 
    Primitive unit cell      =           -7057.9058 kJ/(mole unit cells)
    Non-primitive unit cell  =          -21173.7173 kJ/(mole unit cells)
--------------------------------------------------------------------------------


  Number of variables =        2

  Maximum number of calculations  =          1000
  Maximum Hessian update interval =            10
  Maximum step size               =   1.000000000
  Maximum parameter tolerance     =   0.000010000
  Maximum function  tolerance     =   0.000010000
  Maximum gradient  tolerance     =   0.001000000
  Maximum gradient  component     =   0.010000000

  Symmetry constrained optimisation

  Symmetry used for second derivatives

  Cell parameters to be optimised using strains

  Newton-Raphson optimiser to be used

  BFGS hessian update to be used

  Start of bulk optimisation :

  Cycle:      0 Energy:       -73.150508  Gnorm:      8.433429  CPU:    0.007
  ** Hessian calculated **
  Cycle:      1 Energy:       -73.717512  Gnorm:      1.432921  CPU:    0.015
  Cycle:      2 Energy:       -73.728823  Gnorm:      0.313906  CPU:    0.023
  Cycle:      3 Energy:       -73.729457  Gnorm:      0.008659  CPU:    0.032


  **** Optimisation achieved ****


  Final energy =     -73.72945781 eV
  Final Gnorm  =       0.00005379

  Components of energy : 

--------------------------------------------------------------------------------
  Interatomic potentials     =           9.75856610 eV
  Monopole - monopole (real) =         -22.78419884 eV
  Monopole - monopole (recip)=         -60.70382507 eV
  Monopole - monopole (total)=         -83.48802391 eV
--------------------------------------------------------------------------------
  Total lattice energy : 
    Primitive unit cell      =         -73.72945781 eV
    Non-primitive unit cell  =        -221.18837342 eV
--------------------------------------------------------------------------------
  Total lattice energy (in kJmol-1): 
    Primitive unit cell      =           -7113.7656 kJ/(mole unit cells)
    Non-primitive unit cell  =          -21341.2969 kJ/(mole unit cells)
--------------------------------------------------------------------------------

  Final asymmetric unit coordinates :

--------------------------------------------------------------------------------
   No.  Atomic        x           y           z         Radius
        Label       (Frac)      (Frac)      (Frac)       (Angs) 
--------------------------------------------------------------------------------
     1  Tb    c     0.000000    0.000000    0.000000    0.000000
     2  Ba    c     0.000000    0.000000    0.250000    0.000000
     3  O     c     0.462400    0.000000    0.250000    0.000000
     4  O     s     0.462400    0.000000    0.250000    0.000000
--------------------------------------------------------------------------------

  Final Cartesian lattice vectors (Angstroms) :

        2.893526    1.670578    4.698233
       -2.893526    1.670578    4.698233
        0.000000   -3.341156    4.698233


  Final cell parameters and derivatives :

--------------------------------------------------------------------------------
       a            5.765130 Angstrom     dE/de1(xx)    -0.000095 eV/strain
       b            5.765130 Angstrom     dE/de2(yy)     0.000000 eV/strain
       c            5.765130 Angstrom     dE/de3(zz)    -0.000051 eV/strain
       alpha       60.251732 Degrees      dE/de4(yz)     0.000000 eV/strain
       beta        60.251732 Degrees      dE/de5(xz)     0.000000 eV/strain
       gamma       60.251732 Degrees      dE/de6(xy)     0.000000 eV/strain
--------------------------------------------------------------------------------

  Primitive cell volume =           136.263623 Angs**3

  Density of cell =      8.390593 g/cm**3

  Non-primitive lattice parameters :

  a    =     5.787052  b   =     5.787052  c    =    14.094700
  alpha=    90.000000  beta=    90.000000  gamma=   120.000000

  Non-primitive cell volume =           408.790870 Angs**3


  Final internal derivatives :

--------------------------------------------------------------------------------
   No.  Atomic          a             b             c           Radius
        Label          (eV)          (eV)          (eV)        (eV/Angs)
--------------------------------------------------------------------------------
      1 Tb    c       0.000000      0.000000      0.000000      0.000000
      2 Ba    c       0.000000      0.000000      0.000000      0.000000
      3 O     c       0.000000      0.000000      0.000000      0.000000
      4 O     s       0.000000      0.000000      0.000000      0.000000
--------------------------------------------------------------------------------
  Maximum abs         0.000000      0.000000      0.000000      0.000000
--------------------------------------------------------------------------------


  Born effective charge tensors : 

-------------------------------------------------------------------------------
  Atom             x           y             z
-------------------------------------------------------------------------------
   1 Tb    x       0.4168     -0.0184      0.0000
           y       0.0184      0.4168      0.0000
           z       0.0000      0.0000      0.4320
-------------------------------------------------------------------------------
   2 Ba    x       2.5190      0.0000      0.0000
           y       0.0000      2.5190      0.0000
           z       0.0000      0.0000      2.5513
-------------------------------------------------------------------------------
   3 O     x      -1.1585      0.0000      0.0000
           y       0.0000     -0.7986      0.2730
           z       0.0000      0.2758     -0.9944
-------------------------------------------------------------------------------




  Elastic Constant Matrix: (Units=GPa)

-------------------------------------------------------------------------------
  Indices      1         2         3         4         5         6    
-------------------------------------------------------------------------------
       1    120.5089   36.0793   65.9935  -44.6928    0.0000    0.0000
       2     36.0793  120.5089   65.9935   44.6928    0.0000    0.0000
       3     65.9935   65.9935   77.3488    0.0000    0.0000    0.0000
       4    -44.6928   44.6928    0.0000   68.1925    0.0000    0.0000
       5      0.0000    0.0000    0.0000    0.0000   68.1925  -44.6928
       6      0.0000    0.0000    0.0000    0.0000  -44.6928   42.2148
-------------------------------------------------------------------------------


  Elastic Compliance Matrix: (Units=1/GPa)

-------------------------------------------------------------------------------
  Indices      1         2         3         4         5         6    
-------------------------------------------------------------------------------
       1    0.030714 -0.007975 -0.019401  0.025357  0.000000  0.000000
       2   -0.007975  0.030714 -0.019401 -0.025357  0.000000  0.000000
       3   -0.019401 -0.019401  0.046033  0.000000  0.000000  0.000000
       4    0.025357 -0.025357  0.000000  0.047901  0.000000  0.000000
       5    0.000000  0.000000  0.000000  0.000000  0.047901  0.050713
       6    0.000000  0.000000  0.000000  0.000000  0.050713  0.077378
-------------------------------------------------------------------------------

  Mechanical properties :

-------------------------------------------------------------------------------
  Convention :                    Reuss         Voigt         Hill
-------------------------------------------------------------------------------
  Bulk  Modulus (GPa)     =      71.89801      72.72211      72.31006
  Shear Modulus (GPa)     =      13.19851      45.73998      29.46925
-------------------------------------------------------------------------------
  Velocity S-wave (km/s)  =       1.25420       2.33481       1.87408
  Velocity P-wave (km/s)  =       3.26592       3.99194       3.64704
-------------------------------------------------------------------------------
  Compressibility (1/GPa) =    0.01390859
-------------------------------------------------------------------------------
  Stress axis :                     x             y             z
-------------------------------------------------------------------------------
  Youngs Moduli (GPa)     =      32.55851      32.55851      21.72345
-------------------------------------------------------------------------------
  Poissons Ratio (x)      =                     0.25966       0.42145
  Poissons Ratio (y)      =       0.25966                     0.42145
  Poissons Ratio (z)      =       0.63165       0.63165
-------------------------------------------------------------------------------


  Piezoelectric Strain Matrix: (Units=C/m**2)

-------------------------------------------------------------------------------
  Indices      1         2         3         4         5         6    
-------------------------------------------------------------------------------
       x     0.00000   0.00000   0.00000   0.00000   0.00000   0.00000
       y     0.00000   0.00000   0.00000   0.00000   0.00000   0.00000
       z     0.00000   0.00000   0.00000   0.00000   0.00000   0.00000
-------------------------------------------------------------------------------


  Piezoelectric Stress Matrix: (Units=10**-11 C/N)

-------------------------------------------------------------------------------
  Indices      1         2         3         4         5         6    
-------------------------------------------------------------------------------
       x     0.00000   0.00000   0.00000   0.00000   0.00000   0.00000
       y     0.00000   0.00000   0.00000   0.00000   0.00000   0.00000
       z     0.00000   0.00000   0.00000   0.00000   0.00000   0.00000
-------------------------------------------------------------------------------


  Static dielectric constant tensor : 

-------------------------------------------------------------------------------
              x         y         z
-------------------------------------------------------------------------------
       x    -4.93137   0.00000   0.00000
       y     0.00000  -4.93137   0.00000
       z     0.00000   0.00000  -3.38360
--------------------------------------------------------------------------------

  High frequency dielectric constant tensor : 

-------------------------------------------------------------------------------
              x         y         z
-------------------------------------------------------------------------------
       x     1.62959   0.00000   0.00000
       y     0.00000   1.62959   0.00000
       z     0.00000   0.00000   1.63774
-------------------------------------------------------------------------------

  Static refractive indices : 

-------------------------------------------------------------------------------
    1 =   -2.22067      2 =   -2.22067      3 =   -1.83946
-------------------------------------------------------------------------------

  High frequency refractive indices : 

-------------------------------------------------------------------------------
    1 =    1.27655      2 =    1.27655      3 =    1.27974
-------------------------------------------------------------------------------


  Time to end of optimisation =       0.0527 seconds


  Peak dynamic memory used =       0.57 MB 


  Timing analysis for GULP :

--------------------------------------------------------------------------------
  Task / Subroutine                                          Time (Seconds)
--------------------------------------------------------------------------------
  Calculation of reciprocal space energy and derivatives          0.0009
  Calculation of reciprocal space energy using symmetry           0.0015
  Calculation of real space energy and derivatives                0.0106
  Calculation of real space energy using symmetry                 0.0364
  Symmetry generation of equivalent positions                     0.0003
--------------------------------------------------------------------------------
  Total CPU time                                                  0.0527
--------------------------------------------------------------------------------


  CIF file written as perov.cif                                               


  Job Finished at 09:26.36  6th April      2017                               

