********************************************************************************
*                       GENERAL UTILITY LATTICE PROGRAM                        *
*                                 Julian Gale                                  *
*                      Nanochemistry Research Institute                        *
*                           Department of Chemistry                            *
*                    Curtin University, Western Australia                      *
********************************************************************************
* Version = 4.3.2 * Last modified =  3rd March 2015                            *
********************************************************************************
*  optimise     - perform optimisation run                                     *
*  cell_only    - only optimise unit cell                                      *
*  property     - calculate properties for final geometry                      *
********************************************************************************

  Job Started  at 09:26.37  6th April      2017                               

  Number of CPUs =     1


  Total number of configurations input =   1

********************************************************************************
*  Input for Configuration =   1                                               *
********************************************************************************

  Formula = Tb2Ba2O6                                                    

  Number of irreducible atoms/shells =       4


  Total number atoms/shells =      16

  Dimensionality = 3               :  Bulk   


  Symmetry :

  Crystal family                   :  Hexagonal   
  Crystal class  (Groth - 1921)    :  Ditrigonal Scalenohedral             

  Space group (centrosymmetric)    :  R -3 C          

  Patterson group                  :  R -3 m   

  Cartesian lattice vectors (Angstroms) :

        3.039900    1.755087    4.922700
       -3.039900    1.755087    4.922700
        0.000000   -3.510174    4.922700

  Primitive cell parameters :            Full cell parameters :

  a =   6.0460    alpha =  60.3700       a =   6.0798    alpha =  90.0000
  b =   6.0460    beta  =  60.3700       b =   6.0798    beta  =  90.0000
  c =   6.0460    gamma =  60.3700       c =  14.7681    gamma = 120.0000

  Initial volumes (Angstroms**3):

  Primitive cell =         157.584170    Full cell =         472.752509

  Temperature of configuration =  0.000     K 

  Pressure of configuration =         0.000 GPa 

  Fractional coordinates of asymmetric unit :

--------------------------------------------------------------------------------
   No.  Atomic       x           y          z         Charge      Occupancy
        Label      (Frac)      (Frac)     (Frac)        (e)         (Frac)  
--------------------------------------------------------------------------------
      1 Tb    c    0.000000    0.000000    0.000000     1.10000    1.000000    
      2 Ba    c    0.000000    0.000000    0.250000     2.10000    1.000000    
      3 O     c    0.462400    0.000000    0.250000     0.37800    1.000000    
      4 O     s    0.462400    0.000000    0.250000    -1.44467    1.000000    
--------------------------------------------------------------------------------


  Constraints : 

--------------------------------------------------------------------------------
  Constraint no.      Unconstrained     Constrained    Coefficient    Offset
                         Variable         Variable
--------------------------------------------------------------------------------
           1              Strain 1        Strain 2       1.00000      0.0000
--------------------------------------------------------------------------------


********************************************************************************
*  General input information                                                   *
********************************************************************************

  Species output for all configurations : 

--------------------------------------------------------------------------------
  Species    Type    Atomic    Atomic    Charge       Radii (Angs)     Library
                     Number     Mass       (e)     Cova   Ionic  VDW   Symbol
--------------------------------------------------------------------------------
    Tb       Core       65     158.93   1.100000   1.760  0.000  2.630          
    Ba       Core       56     137.33   2.100000   1.340  0.000  2.000          
    O        Core        8      16.00   0.378000   0.730  0.000  1.360          
    O        Shell       8       0.00  -1.444667   0.730  0.000  1.360          
--------------------------------------------------------------------------------


  Lattice summation method               =    Ewald          (3-D)
                                         =    Parry          (2-D)
                                         =    Saunders et al (1-D)
  Accuracy factor for lattice sums       =   12.000


  Time limit = Infinity

  Maximum range for interatomic potentials =    100000.000000 Angstroms

  General interatomic potentials :

--------------------------------------------------------------------------------
Atom  Types   Potential         A         B         C         D     Cutoffs(Ang)
  1     2                                                            Min    Max 
--------------------------------------------------------------------------------
Ba   c Ba   c Buckingham    0.219E+04 0.192      0.00      0.00     0.000 10.000
Tb   c O    s Buckingham    0.148E+04 0.266      0.00      0.00     0.000 10.000
O    s O    s Buckingham     912.     0.271      13.8      0.00     0.000 10.000
Ba   c O    s Buckingham    0.352E+04 0.267      0.00      0.00     0.000 10.000
O    c O    s Spring (c-s)   26.8      0.00      0.00      0.00     0.000  0.800
--------------------------------------------------------------------------------

********************************************************************************
*  Output for configuration   1                                                *
********************************************************************************


  Components of energy : 

--------------------------------------------------------------------------------
  Interatomic potentials     =           6.38527986 eV
  Monopole - monopole (real) =         -24.35379755 eV
  Monopole - monopole (recip)=         -59.34661936 eV
  Monopole - monopole (total)=         -83.70041691 eV
--------------------------------------------------------------------------------
  Total lattice energy : 
    Primitive unit cell      =         -77.31513705 eV
    Non-primitive unit cell  =        -231.94541115 eV
--------------------------------------------------------------------------------
  Total lattice energy (in kJmol-1): 
    Primitive unit cell      =           -7459.7289 kJ/(mole unit cells)
    Non-primitive unit cell  =          -22379.1866 kJ/(mole unit cells)
--------------------------------------------------------------------------------


  Number of variables =        2

  Maximum number of calculations  =          1000
  Maximum Hessian update interval =            10
  Maximum step size               =   1.000000000
  Maximum parameter tolerance     =   0.000010000
  Maximum function  tolerance     =   0.000010000
  Maximum gradient  tolerance     =   0.001000000
  Maximum gradient  component     =   0.010000000

  Symmetry constrained optimisation

  Symmetry used for second derivatives

  Cell parameters to be optimised using strains

  Newton-Raphson optimiser to be used

  BFGS hessian update to be used

  Start of bulk optimisation :

  Cycle:      0 Energy:       -77.315137  Gnorm:     10.013920  CPU:    0.007
  ** Hessian calculated **
  Cycle:      1 Energy:       -78.095891  Gnorm:      1.999663  CPU:    0.015
  Cycle:      2 Energy:       -78.117398  Gnorm:      0.506543  CPU:    0.023
  Cycle:      3 Energy:       -78.119142  Gnorm:      0.000160  CPU:    0.034


  **** Optimisation achieved ****


  Final energy =     -78.11914169 eV
  Final Gnorm  =       0.00001234

  Components of energy : 

--------------------------------------------------------------------------------
  Interatomic potentials     =          10.42114797 eV
  Monopole - monopole (real) =         -25.76639201 eV
  Monopole - monopole (recip)=         -62.77389765 eV
  Monopole - monopole (total)=         -88.54028966 eV
--------------------------------------------------------------------------------
  Total lattice energy : 
    Primitive unit cell      =         -78.11914169 eV
    Non-primitive unit cell  =        -234.35742506 eV
--------------------------------------------------------------------------------
  Total lattice energy (in kJmol-1): 
    Primitive unit cell      =           -7537.3030 kJ/(mole unit cells)
    Non-primitive unit cell  =          -22611.9090 kJ/(mole unit cells)
--------------------------------------------------------------------------------

  Final asymmetric unit coordinates :

--------------------------------------------------------------------------------
   No.  Atomic        x           y           z         Radius
        Label       (Frac)      (Frac)      (Frac)       (Angs) 
--------------------------------------------------------------------------------
     1  Tb    c     0.000000    0.000000    0.000000    0.000000
     2  Ba    c     0.000000    0.000000    0.250000    0.000000
     3  O     c     0.462400    0.000000    0.250000    0.000000
     4  O     s     0.462400    0.000000    0.250000    0.000000
--------------------------------------------------------------------------------

  Final Cartesian lattice vectors (Angstroms) :

        2.869406    1.656652    4.668653
       -2.869406    1.656652    4.668653
        0.000000   -3.313304    4.668653


  Final cell parameters and derivatives :

--------------------------------------------------------------------------------
       a            5.724885 Angstrom     dE/de1(xx)    -0.000021 eV/strain
       b            5.724885 Angstrom     dE/de2(yy)     0.000000 eV/strain
       c            5.724885 Angstrom     dE/de3(zz)     0.000012 eV/strain
       alpha       60.161010 Degrees      dE/de4(yz)     0.000000 eV/strain
       beta        60.161010 Degrees      dE/de5(xz)     0.000000 eV/strain
       gamma       60.161010 Degrees      dE/de6(xy)     0.000000 eV/strain
--------------------------------------------------------------------------------

  Primitive cell volume =           133.157664 Angs**3

  Density of cell =      8.586307 g/cm**3

  Non-primitive lattice parameters :

  a    =     5.738812  b   =     5.738812  c    =    14.005959
  alpha=    90.000000  beta=    90.000000  gamma=   120.000000

  Non-primitive cell volume =           399.472991 Angs**3


  Final internal derivatives :

--------------------------------------------------------------------------------
   No.  Atomic          a             b             c           Radius
        Label          (eV)          (eV)          (eV)        (eV/Angs)
--------------------------------------------------------------------------------
      1 Tb    c       0.000000      0.000000      0.000000      0.000000
      2 Ba    c       0.000000      0.000000      0.000000      0.000000
      3 O     c       0.000000      0.000000      0.000000      0.000000
      4 O     s       0.000000      0.000000      0.000000      0.000000
--------------------------------------------------------------------------------
  Maximum abs         0.000000      0.000000      0.000000      0.000000
--------------------------------------------------------------------------------


  Born effective charge tensors : 

-------------------------------------------------------------------------------
  Atom             x           y             z
-------------------------------------------------------------------------------
   1 Tb    x       0.6035     -0.0100      0.0000
           y       0.0100      0.6035      0.0000
           z       0.0000      0.0000      0.6127
-------------------------------------------------------------------------------
   2 Ba    x       2.3738      0.0000      0.0000
           y       0.0000      2.3738      0.0000
           z       0.0000      0.0000      2.4083
-------------------------------------------------------------------------------
   3 O     x      -1.1434      0.0000      0.0000
           y       0.0000     -0.8415      0.2323
           z       0.0000      0.2338     -1.0070
-------------------------------------------------------------------------------




  Elastic Constant Matrix: (Units=GPa)

-------------------------------------------------------------------------------
  Indices      1         2         3         4         5         6    
-------------------------------------------------------------------------------
       1    137.1646   37.0813   65.0923  -39.5888    0.0000    0.0000
       2     37.0813  137.1646   65.0923   39.5888    0.0000    0.0000
       3     65.0923   65.0923   95.1066    0.0000    0.0000    0.0000
       4    -39.5888   39.5888    0.0000   68.4554    0.0000    0.0000
       5      0.0000    0.0000    0.0000    0.0000   68.4554  -39.5888
       6      0.0000    0.0000    0.0000    0.0000  -39.5888   50.0416
-------------------------------------------------------------------------------


  Elastic Compliance Matrix: (Units=1/GPa)

-------------------------------------------------------------------------------
  Indices      1         2         3         4         5         6    
-------------------------------------------------------------------------------
       1    0.015081 -0.003337 -0.008038  0.010652  0.000000  0.000000
       2   -0.003337  0.015081 -0.008038 -0.010652  0.000000  0.000000
       3   -0.008038 -0.008038  0.021517  0.000000  0.000000  0.000000
       4    0.010652 -0.010652  0.000000  0.026928  0.000000  0.000000
       5    0.000000  0.000000  0.000000  0.000000  0.026928  0.021303
       6    0.000000  0.000000  0.000000  0.000000  0.021303  0.036837
-------------------------------------------------------------------------------

  Mechanical properties :

-------------------------------------------------------------------------------
  Convention :                    Reuss         Voigt         Hill
-------------------------------------------------------------------------------
  Bulk  Modulus (GPa)     =      77.79738      78.21864      78.00801
  Shear Modulus (GPa)     =      26.95650      50.86849      38.91249
-------------------------------------------------------------------------------
  Velocity S-wave (km/s)  =       1.77186       2.43400       2.12883
  Velocity P-wave (km/s)  =       3.63959       4.12418       3.88944
-------------------------------------------------------------------------------
  Compressibility (1/GPa) =    0.01285390
-------------------------------------------------------------------------------
  Stress axis :                     x             y             z
-------------------------------------------------------------------------------
  Youngs Moduli (GPa)     =      66.30658      66.30658      46.47411
-------------------------------------------------------------------------------
  Poissons Ratio (x)      =                     0.22126       0.37357
  Poissons Ratio (y)      =       0.22126                     0.37357
  Poissons Ratio (z)      =       0.53298       0.53298
-------------------------------------------------------------------------------


  Piezoelectric Strain Matrix: (Units=C/m**2)

-------------------------------------------------------------------------------
  Indices      1         2         3         4         5         6    
-------------------------------------------------------------------------------
       x     0.00000   0.00000   0.00000   0.00000   0.00000   0.00000
       y     0.00000   0.00000   0.00000   0.00000   0.00000   0.00000
       z     0.00000   0.00000   0.00000   0.00000   0.00000   0.00000
-------------------------------------------------------------------------------


  Piezoelectric Stress Matrix: (Units=10**-11 C/N)

-------------------------------------------------------------------------------
  Indices      1         2         3         4         5         6    
-------------------------------------------------------------------------------
       x     0.00000   0.00000   0.00000   0.00000   0.00000   0.00000
       y     0.00000   0.00000   0.00000   0.00000   0.00000   0.00000
       z     0.00000   0.00000   0.00000   0.00000   0.00000   0.00000
-------------------------------------------------------------------------------


  Static dielectric constant tensor : 

-------------------------------------------------------------------------------
              x         y         z
-------------------------------------------------------------------------------
       x    -7.95841   0.00000   0.00000
       y     0.00000  -7.95841   0.00000
       z     0.00000   0.00000  -4.64983
--------------------------------------------------------------------------------

  High frequency dielectric constant tensor : 

-------------------------------------------------------------------------------
              x         y         z
-------------------------------------------------------------------------------
       x     1.63636   0.00000   0.00000
       y     0.00000   1.63636   0.00000
       z     0.00000   0.00000   1.64386
-------------------------------------------------------------------------------

  Static refractive indices : 

-------------------------------------------------------------------------------
    1 =   -2.82107      2 =   -2.82107      3 =   -2.15635
-------------------------------------------------------------------------------

  High frequency refractive indices : 

-------------------------------------------------------------------------------
    1 =    1.27920      2 =    1.27920      3 =    1.28213
-------------------------------------------------------------------------------


  Time to end of optimisation =       0.0547 seconds


  Peak dynamic memory used =       0.57 MB 


  Timing analysis for GULP :

--------------------------------------------------------------------------------
  Task / Subroutine                                          Time (Seconds)
--------------------------------------------------------------------------------
  Calculation of reciprocal space energy and derivatives          0.0009
  Calculation of reciprocal space energy using symmetry           0.0016
  Calculation of real space energy and derivatives                0.0104
  Calculation of real space energy using symmetry                 0.0384
  Symmetry generation of equivalent positions                     0.0003
--------------------------------------------------------------------------------
  Total CPU time                                                  0.0547
--------------------------------------------------------------------------------


  CIF file written as perov.cif                                               


  Job Finished at 09:26.37  6th April      2017                               

