********************************************************************************
*                       GENERAL UTILITY LATTICE PROGRAM                        *
*                                 Julian Gale                                  *
*                      Nanochemistry Research Institute                        *
*                           Department of Chemistry                            *
*                    Curtin University, Western Australia                      *
********************************************************************************
* Version = 4.3.2 * Last modified =  3rd March 2015                            *
********************************************************************************
*  optimise     - perform optimisation run                                     *
*  cell_only    - only optimise unit cell                                      *
*  property     - calculate properties for final geometry                      *
********************************************************************************

  Job Started  at 09:26.37  6th April      2017                               

  Number of CPUs =     1


  Total number of configurations input =   1

********************************************************************************
*  Input for Configuration =   1                                               *
********************************************************************************

  Formula = Tb2Ba2O6                                                    

  Number of irreducible atoms/shells =       4


  Total number atoms/shells =      16

  Dimensionality = 3               :  Bulk   


  Symmetry :

  Crystal family                   :  Hexagonal   
  Crystal class  (Groth - 1921)    :  Ditrigonal Scalenohedral             

  Space group (centrosymmetric)    :  R -3 C          

  Patterson group                  :  R -3 m   

  Cartesian lattice vectors (Angstroms) :

        3.039900    1.755087    4.922700
       -3.039900    1.755087    4.922700
        0.000000   -3.510174    4.922700

  Primitive cell parameters :            Full cell parameters :

  a =   6.0460    alpha =  60.3700       a =   6.0798    alpha =  90.0000
  b =   6.0460    beta  =  60.3700       b =   6.0798    beta  =  90.0000
  c =   6.0460    gamma =  60.3700       c =  14.7681    gamma = 120.0000

  Initial volumes (Angstroms**3):

  Primitive cell =         157.584170    Full cell =         472.752509

  Temperature of configuration =  0.000     K 

  Pressure of configuration =         0.000 GPa 

  Fractional coordinates of asymmetric unit :

--------------------------------------------------------------------------------
   No.  Atomic       x           y          z         Charge      Occupancy
        Label      (Frac)      (Frac)     (Frac)        (e)         (Frac)  
--------------------------------------------------------------------------------
      1 Tb    c    0.000000    0.000000    0.000000     1.20000    1.000000    
      2 Ba    c    0.000000    0.000000    0.250000     1.60000    1.000000    
      3 O     c    0.462400    0.000000    0.250000     0.37800    1.000000    
      4 O     s    0.462400    0.000000    0.250000    -1.31133    1.000000    
--------------------------------------------------------------------------------


  Constraints : 

--------------------------------------------------------------------------------
  Constraint no.      Unconstrained     Constrained    Coefficient    Offset
                         Variable         Variable
--------------------------------------------------------------------------------
           1              Strain 1        Strain 2       1.00000      0.0000
--------------------------------------------------------------------------------


********************************************************************************
*  General input information                                                   *
********************************************************************************

  Species output for all configurations : 

--------------------------------------------------------------------------------
  Species    Type    Atomic    Atomic    Charge       Radii (Angs)     Library
                     Number     Mass       (e)     Cova   Ionic  VDW   Symbol
--------------------------------------------------------------------------------
    Tb       Core       65     158.93   1.200000   1.760  0.000  2.630          
    Ba       Core       56     137.33   1.600000   1.340  0.000  2.000          
    O        Core        8      16.00   0.378000   0.730  0.000  1.360          
    O        Shell       8       0.00  -1.311333   0.730  0.000  1.360          
--------------------------------------------------------------------------------


  Lattice summation method               =    Ewald          (3-D)
                                         =    Parry          (2-D)
                                         =    Saunders et al (1-D)
  Accuracy factor for lattice sums       =   12.000


  Time limit = Infinity

  Maximum range for interatomic potentials =    100000.000000 Angstroms

  General interatomic potentials :

--------------------------------------------------------------------------------
Atom  Types   Potential         A         B         C         D     Cutoffs(Ang)
  1     2                                                            Min    Max 
--------------------------------------------------------------------------------
Ba   c Ba   c Buckingham    0.219E+04 0.192      0.00      0.00     0.000 10.000
Tb   c O    s Buckingham    0.148E+04 0.266      0.00      0.00     0.000 10.000
O    s O    s Buckingham     912.     0.271      13.8      0.00     0.000 10.000
Ba   c O    s Buckingham    0.352E+04 0.267      0.00      0.00     0.000 10.000
O    c O    s Spring (c-s)   22.0      0.00      0.00      0.00     0.000  0.800
--------------------------------------------------------------------------------

********************************************************************************
*  Output for configuration   1                                                *
********************************************************************************


  Components of energy : 

--------------------------------------------------------------------------------
  Interatomic potentials     =           6.38527986 eV
  Monopole - monopole (real) =         -20.26198968 eV
  Monopole - monopole (recip)=         -43.80257806 eV
  Monopole - monopole (total)=         -64.06456774 eV
--------------------------------------------------------------------------------
  Total lattice energy : 
    Primitive unit cell      =         -57.67928788 eV
    Non-primitive unit cell  =        -173.03786363 eV
--------------------------------------------------------------------------------
  Total lattice energy (in kJmol-1): 
    Primitive unit cell      =           -5565.1696 kJ/(mole unit cells)
    Non-primitive unit cell  =          -16695.5087 kJ/(mole unit cells)
--------------------------------------------------------------------------------


  Number of variables =        2

  Maximum number of calculations  =          1000
  Maximum Hessian update interval =            10
  Maximum step size               =   1.000000000
  Maximum parameter tolerance     =   0.000010000
  Maximum function  tolerance     =   0.000010000
  Maximum gradient  tolerance     =   0.001000000
  Maximum gradient  component     =   0.010000000

  Symmetry constrained optimisation

  Symmetry used for second derivatives

  Cell parameters to be optimised using strains

  Newton-Raphson optimiser to be used

  BFGS hessian update to be used

  Start of bulk optimisation :

  Cycle:      0 Energy:       -57.679288  Gnorm:      2.633541  CPU:    0.007
  ** Hessian calculated **
  Cycle:      1 Energy:       -57.738264  Gnorm:      0.030677  CPU:    0.017
  Cycle:      2 Energy:       -57.738272  Gnorm:      0.002342  CPU:    0.026


  **** Optimisation achieved ****


  Final energy =     -57.73827198 eV
  Final Gnorm  =       0.00000312

  Components of energy : 

--------------------------------------------------------------------------------
  Interatomic potentials     =           7.39407627 eV
  Monopole - monopole (real) =         -20.60232830 eV
  Monopole - monopole (recip)=         -44.53001995 eV
  Monopole - monopole (total)=         -65.13234825 eV
--------------------------------------------------------------------------------
  Total lattice energy : 
    Primitive unit cell      =         -57.73827198 eV
    Non-primitive unit cell  =        -173.21481595 eV
--------------------------------------------------------------------------------
  Total lattice energy (in kJmol-1): 
    Primitive unit cell      =           -5570.8606 kJ/(mole unit cells)
    Non-primitive unit cell  =          -16712.5819 kJ/(mole unit cells)
--------------------------------------------------------------------------------

  Final asymmetric unit coordinates :

--------------------------------------------------------------------------------
   No.  Atomic        x           y           z         Radius
        Label       (Frac)      (Frac)      (Frac)       (Angs) 
--------------------------------------------------------------------------------
     1  Tb    c     0.000000    0.000000    0.000000    0.000000
     2  Ba    c     0.000000    0.000000    0.250000    0.000000
     3  O     c     0.462400    0.000000    0.250000    0.000000
     4  O     s     0.462400    0.000000    0.250000    0.000000
--------------------------------------------------------------------------------

  Final Cartesian lattice vectors (Angstroms) :

        2.986306    1.724145    4.855090
       -2.986306    1.724145    4.855090
        0.000000   -3.448289    4.855090


  Final cell parameters and derivatives :

--------------------------------------------------------------------------------
       a            5.955048 Angstrom     dE/de1(xx)    -0.000005 eV/strain
       b            5.955048 Angstrom     dE/de2(yy)     0.000000 eV/strain
       c            5.955048 Angstrom     dE/de3(zz)     0.000004 eV/strain
       alpha       60.195229 Degrees      dE/de4(yz)     0.000000 eV/strain
       beta        60.195229 Degrees      dE/de5(xz)     0.000000 eV/strain
       gamma       60.195229 Degrees      dE/de6(xy)     0.000000 eV/strain
--------------------------------------------------------------------------------

  Primitive cell volume =           149.988018 Angs**3

  Density of cell =      7.622826 g/cm**3

  Non-primitive lattice parameters :

  a    =     5.972612  b   =     5.972612  c    =    14.565270
  alpha=    90.000000  beta=    90.000000  gamma=   120.000000

  Non-primitive cell volume =           449.964054 Angs**3


  Final internal derivatives :

--------------------------------------------------------------------------------
   No.  Atomic          a             b             c           Radius
        Label          (eV)          (eV)          (eV)        (eV/Angs)
--------------------------------------------------------------------------------
      1 Tb    c       0.000000      0.000000      0.000000      0.000000
      2 Ba    c       0.000000      0.000000      0.000000      0.000000
      3 O     c       0.000000      0.000000      0.000000      0.000000
      4 O     s       0.000000      0.000000      0.000000      0.000000
--------------------------------------------------------------------------------
  Maximum abs         0.000000      0.000000      0.000000      0.000000
--------------------------------------------------------------------------------


  Born effective charge tensors : 

-------------------------------------------------------------------------------
  Atom             x           y             z
-------------------------------------------------------------------------------
   1 Tb    x       0.7974     -0.0018      0.0000
           y       0.0018      0.7974      0.0000
           z       0.0000      0.0000      0.8012
-------------------------------------------------------------------------------
   2 Ba    x       1.7541      0.0000      0.0000
           y       0.0000      1.7541      0.0000
           z       0.0000      0.0000      1.7822
-------------------------------------------------------------------------------
   3 O     x      -0.9391      0.0000      0.0000
           y       0.0000     -0.7618      0.1398
           z       0.0000      0.1404     -0.8611
-------------------------------------------------------------------------------




  Elastic Constant Matrix: (Units=GPa)

-------------------------------------------------------------------------------
  Indices      1         2         3         4         5         6    
-------------------------------------------------------------------------------
       1   -104.1872  227.2237   40.1880   96.4106    0.0000    0.0000
       2    227.2237 -104.1872   40.1880  -96.4106    0.0000    0.0000
       3     40.1880   40.1880   73.4008    0.0000    0.0000    0.0000
       4     96.4106  -96.4106    0.0000  -24.9996    0.0000    0.0000
       5      0.0000    0.0000    0.0000    0.0000  -24.9996   96.4106
       6      0.0000    0.0000    0.0000    0.0000   96.4106 -165.7054
-------------------------------------------------------------------------------


  Elastic Compliance Matrix: (Units=1/GPa)

-------------------------------------------------------------------------------
  Indices      1         2         3         4         5         6    
-------------------------------------------------------------------------------
       1    0.007540  0.005114 -0.006928  0.009356  0.000000  0.000000
       2    0.005114  0.007540 -0.006928 -0.009356  0.000000  0.000000
       3   -0.006928 -0.006928  0.021210  0.000000  0.000000  0.000000
       4    0.009356 -0.009356  0.000000  0.032161  0.000000  0.000000
       5    0.000000  0.000000  0.000000  0.000000  0.032161  0.018712
       6    0.000000  0.000000  0.000000  0.000000  0.018712  0.004852
-------------------------------------------------------------------------------

  Mechanical properties :

-------------------------------------------------------------------------------
  Convention :                    Reuss         Voigt         Hill
-------------------------------------------------------------------------------
  Bulk  Modulus (GPa)     =      53.17658      53.35841      53.26749
  Shear Modulus (GPa)     =      38.69501     -72.64580     -16.97539
-------------------------------------------------------------------------------
  Velocity S-wave (km/s)  =       2.25304      -3.08708      -1.49229
  Velocity P-wave (km/s)  =       3.70732       2.38891       2.00466
-------------------------------------------------------------------------------
  Compressibility (1/GPa) =    0.01880527
-------------------------------------------------------------------------------
  Stress axis :                     x             y             z
-------------------------------------------------------------------------------
  Youngs Moduli (GPa)     =     132.63056     132.63056      47.14729
-------------------------------------------------------------------------------
  Poissons Ratio (x)      =                    -0.67824       0.32663
  Poissons Ratio (y)      =      -0.67824                     0.32663
  Poissons Ratio (z)      =       0.91886       0.91886
-------------------------------------------------------------------------------


  Piezoelectric Strain Matrix: (Units=C/m**2)

-------------------------------------------------------------------------------
  Indices      1         2         3         4         5         6    
-------------------------------------------------------------------------------
       x     0.00000   0.00000   0.00000   0.00000   0.00000   0.00000
       y     0.00000   0.00000   0.00000   0.00000   0.00000   0.00000
       z     0.00000   0.00000   0.00000   0.00000   0.00000   0.00000
-------------------------------------------------------------------------------


  Piezoelectric Stress Matrix: (Units=10**-11 C/N)

-------------------------------------------------------------------------------
  Indices      1         2         3         4         5         6    
-------------------------------------------------------------------------------
       x     0.00000   0.00000   0.00000   0.00000   0.00000   0.00000
       y     0.00000   0.00000   0.00000   0.00000   0.00000   0.00000
       z     0.00000   0.00000   0.00000   0.00000   0.00000   0.00000
-------------------------------------------------------------------------------


  Static dielectric constant tensor : 

-------------------------------------------------------------------------------
              x         y         z
-------------------------------------------------------------------------------
       x   -57.22385   0.00000   0.00000
       y     0.00000 -57.22385   0.00000
       z     0.00000   0.00000  -8.16352
--------------------------------------------------------------------------------

  High frequency dielectric constant tensor : 

-------------------------------------------------------------------------------
              x         y         z
-------------------------------------------------------------------------------
       x     1.55794   0.00000   0.00000
       y     0.00000   1.55794   0.00000
       z     0.00000   0.00000   1.56348
-------------------------------------------------------------------------------

  Static refractive indices : 

-------------------------------------------------------------------------------
    1 =   -7.56464      2 =   -7.56464      3 =   -2.85719
-------------------------------------------------------------------------------

  High frequency refractive indices : 

-------------------------------------------------------------------------------
    1 =    1.24817      2 =    1.24817      3 =    1.25039
-------------------------------------------------------------------------------


  Time to end of optimisation =       0.0465 seconds


  Peak dynamic memory used =       0.57 MB 


  Timing analysis for GULP :

--------------------------------------------------------------------------------
  Task / Subroutine                                          Time (Seconds)
--------------------------------------------------------------------------------
  Calculation of reciprocal space energy and derivatives          0.0009
  Calculation of reciprocal space energy using symmetry           0.0013
  Calculation of real space energy and derivatives                0.0102
  Calculation of real space energy using symmetry                 0.0306
  Symmetry generation of equivalent positions                     0.0003
--------------------------------------------------------------------------------
  Total CPU time                                                  0.0466
--------------------------------------------------------------------------------


  CIF file written as perov.cif                                               


  Job Finished at 09:26.37  6th April      2017                               

