********************************************************************************
*                       GENERAL UTILITY LATTICE PROGRAM                        *
*                                 Julian Gale                                  *
*                      Nanochemistry Research Institute                        *
*                           Department of Chemistry                            *
*                    Curtin University, Western Australia                      *
********************************************************************************
* Version = 4.3.2 * Last modified =  3rd March 2015                            *
********************************************************************************
*  optimise     - perform optimisation run                                     *
*  cell_only    - only optimise unit cell                                      *
*  property     - calculate properties for final geometry                      *
********************************************************************************

  Job Started  at 09:26.34  6th April      2017                               

  Number of CPUs =     1


  Total number of configurations input =   1

********************************************************************************
*  Input for Configuration =   1                                               *
********************************************************************************

  Formula = Tb2Ba2O6                                                    

  Number of irreducible atoms/shells =       4


  Total number atoms/shells =      16

  Dimensionality = 3               :  Bulk   


  Symmetry :

  Crystal family                   :  Hexagonal   
  Crystal class  (Groth - 1921)    :  Ditrigonal Scalenohedral             

  Space group (centrosymmetric)    :  R -3 C          

  Patterson group                  :  R -3 m   

  Cartesian lattice vectors (Angstroms) :

        3.039900    1.755087    4.922700
       -3.039900    1.755087    4.922700
        0.000000   -3.510174    4.922700

  Primitive cell parameters :            Full cell parameters :

  a =   6.0460    alpha =  60.3700       a =   6.0798    alpha =  90.0000
  b =   6.0460    beta  =  60.3700       b =   6.0798    beta  =  90.0000
  c =   6.0460    gamma =  60.3700       c =  14.7681    gamma = 120.0000

  Initial volumes (Angstroms**3):

  Primitive cell =         157.584170    Full cell =         472.752509

  Temperature of configuration =  0.000     K 

  Pressure of configuration =         0.000 GPa 

  Fractional coordinates of asymmetric unit :

--------------------------------------------------------------------------------
   No.  Atomic       x           y          z         Charge      Occupancy
        Label      (Frac)      (Frac)     (Frac)        (e)         (Frac)  
--------------------------------------------------------------------------------
      1 Tb    c    0.000000    0.000000    0.000000     0.70000    1.000000    
      2 Ba    c    0.000000    0.000000    0.250000     2.20000    1.000000    
      3 O     c    0.462400    0.000000    0.250000     0.37800    1.000000    
      4 O     s    0.462400    0.000000    0.250000    -1.34467    1.000000    
--------------------------------------------------------------------------------


  Constraints : 

--------------------------------------------------------------------------------
  Constraint no.      Unconstrained     Constrained    Coefficient    Offset
                         Variable         Variable
--------------------------------------------------------------------------------
           1              Strain 1        Strain 2       1.00000      0.0000
--------------------------------------------------------------------------------


********************************************************************************
*  General input information                                                   *
********************************************************************************

  Species output for all configurations : 

--------------------------------------------------------------------------------
  Species    Type    Atomic    Atomic    Charge       Radii (Angs)     Library
                     Number     Mass       (e)     Cova   Ionic  VDW   Symbol
--------------------------------------------------------------------------------
    Tb       Core       65     158.93   0.700000   1.760  0.000  2.630          
    Ba       Core       56     137.33   2.200000   1.340  0.000  2.000          
    O        Core        8      16.00   0.378000   0.730  0.000  1.360          
    O        Shell       8       0.00  -1.344667   0.730  0.000  1.360          
--------------------------------------------------------------------------------


  Lattice summation method               =    Ewald          (3-D)
                                         =    Parry          (2-D)
                                         =    Saunders et al (1-D)
  Accuracy factor for lattice sums       =   12.000


  Time limit = Infinity

  Maximum range for interatomic potentials =    100000.000000 Angstroms

  General interatomic potentials :

--------------------------------------------------------------------------------
Atom  Types   Potential         A         B         C         D     Cutoffs(Ang)
  1     2                                                            Min    Max 
--------------------------------------------------------------------------------
Ba   c Ba   c Buckingham    0.219E+04 0.192      0.00      0.00     0.000 10.000
Tb   c O    s Buckingham    0.148E+04 0.266      0.00      0.00     0.000 10.000
O    s O    s Buckingham     912.     0.271      13.8      0.00     0.000 10.000
Ba   c O    s Buckingham    0.352E+04 0.267      0.00      0.00     0.000 10.000
O    c O    s Spring (c-s)   23.2      0.00      0.00      0.00     0.000  0.800
--------------------------------------------------------------------------------

********************************************************************************
*  Output for configuration   1                                                *
********************************************************************************


  Components of energy : 

--------------------------------------------------------------------------------
  Interatomic potentials     =           6.38527986 eV
  Monopole - monopole (real) =         -18.12640476 eV
  Monopole - monopole (recip)=         -52.84349835 eV
  Monopole - monopole (total)=         -70.96990310 eV
--------------------------------------------------------------------------------
  Total lattice energy : 
    Primitive unit cell      =         -64.58462324 eV
    Non-primitive unit cell  =        -193.75386972 eV
--------------------------------------------------------------------------------
  Total lattice energy (in kJmol-1): 
    Primitive unit cell      =           -6231.4289 kJ/(mole unit cells)
    Non-primitive unit cell  =          -18694.2866 kJ/(mole unit cells)
--------------------------------------------------------------------------------


  Number of variables =        2

  Maximum number of calculations  =          1000
  Maximum Hessian update interval =            10
  Maximum step size               =   1.000000000
  Maximum parameter tolerance     =   0.000010000
  Maximum function  tolerance     =   0.000010000
  Maximum gradient  tolerance     =   0.001000000
  Maximum gradient  component     =   0.010000000

  Symmetry constrained optimisation

  Symmetry used for second derivatives

  Cell parameters to be optimised using strains

  Newton-Raphson optimiser to be used

  BFGS hessian update to be used

  Start of bulk optimisation :

  Cycle:      0 Energy:       -64.584623  Gnorm:      5.197509  CPU:    0.007
  ** Hessian calculated **
  Cycle:      1 Energy:       -64.813498  Gnorm:      0.106449  CPU:    0.016
  Cycle:      2 Energy:       -64.813584  Gnorm:      0.024425  CPU:    0.024
  Cycle:      3 Energy:       -64.813811  Gnorm:      0.017924  CPU:    0.041
  Cycle:      4 Energy:       -64.813994  Gnorm:      0.008029  CPU:    0.053
  Cycle:      5 Energy:       -64.814022  Gnorm:      0.001649  CPU:    0.061


  **** Optimisation achieved ****


  Final energy =     -64.81402178 eV
  Final Gnorm  =       0.00008201

  Components of energy : 

--------------------------------------------------------------------------------
  Interatomic potentials     =           8.41969144 eV
  Monopole - monopole (real) =         -18.65429476 eV
  Monopole - monopole (recip)=         -54.57941846 eV
  Monopole - monopole (total)=         -73.23371322 eV
--------------------------------------------------------------------------------
  Total lattice energy : 
    Primitive unit cell      =         -64.81402178 eV
    Non-primitive unit cell  =        -194.44206534 eV
--------------------------------------------------------------------------------
  Total lattice energy (in kJmol-1): 
    Primitive unit cell      =           -6253.5623 kJ/(mole unit cells)
    Non-primitive unit cell  =          -18760.6870 kJ/(mole unit cells)
--------------------------------------------------------------------------------

  Final asymmetric unit coordinates :

--------------------------------------------------------------------------------
   No.  Atomic        x           y           z         Radius
        Label       (Frac)      (Frac)      (Frac)       (Angs) 
--------------------------------------------------------------------------------
     1  Tb    c     0.000000    0.000000    0.000000    0.000000
     2  Ba    c     0.000000    0.000000    0.250000    0.000000
     3  O     c     0.462400    0.000000    0.250000    0.000000
     4  O     s     0.462400    0.000000    0.250000    0.000000
--------------------------------------------------------------------------------

  Final Cartesian lattice vectors (Angstroms) :

        2.993374    1.728225    4.608609
       -2.993374    1.728225    4.608609
        0.000000   -3.456450    4.608609


  Final cell parameters and derivatives :

--------------------------------------------------------------------------------
       a            5.760757 Angstrom     dE/de1(xx)     0.000161 eV/strain
       b            5.760757 Angstrom     dE/de2(yy)     0.000000 eV/strain
       c            5.760757 Angstrom     dE/de3(zz)     0.000031 eV/strain
       alpha       62.612810 Degrees      dE/de4(yz)     0.000000 eV/strain
       beta        62.612810 Degrees      dE/de5(xz)     0.000000 eV/strain
       gamma       62.612810 Degrees      dE/de6(xy)     0.000000 eV/strain
--------------------------------------------------------------------------------

  Primitive cell volume =           143.048201 Angs**3

  Density of cell =      7.992638 g/cm**3

  Non-primitive lattice parameters :

  a    =     5.986748  b   =     5.986748  c    =    13.825827
  alpha=    90.000000  beta=    90.000000  gamma=   120.000000

  Non-primitive cell volume =           429.144604 Angs**3


  Final internal derivatives :

--------------------------------------------------------------------------------
   No.  Atomic          a             b             c           Radius
        Label          (eV)          (eV)          (eV)        (eV/Angs)
--------------------------------------------------------------------------------
      1 Tb    c       0.000000      0.000000      0.000000      0.000000
      2 Ba    c       0.000000      0.000000      0.000000      0.000000
      3 O     c       0.000000      0.000000      0.000000      0.000000
      4 O     s       0.000000      0.000000      0.000000      0.000000
--------------------------------------------------------------------------------
  Maximum abs         0.000000      0.000000      0.000000      0.000000
--------------------------------------------------------------------------------


  Born effective charge tensors : 

-------------------------------------------------------------------------------
  Atom             x           y             z
-------------------------------------------------------------------------------
   1 Tb    x       0.2367     -0.0259      0.0000
           y       0.0259      0.2367      0.0000
           z       0.0000      0.0000      0.3118
-------------------------------------------------------------------------------
   2 Ba    x       2.5310      0.0000      0.0000
           y       0.0000      2.5310      0.0000
           z       0.0000      0.0000      2.5797
-------------------------------------------------------------------------------
   3 O     x      -1.1148      0.0000      0.0000
           y       0.0000     -0.7303      0.2892
           z       0.0000      0.3091     -0.9639
-------------------------------------------------------------------------------




  Elastic Constant Matrix: (Units=GPa)

-------------------------------------------------------------------------------
  Indices      1         2         3         4         5         6    
-------------------------------------------------------------------------------
       1     99.2074   32.6469   59.5177  -45.3755    0.0000    0.0000
       2     32.6469   99.2074   59.5177   45.3755    0.0000    0.0000
       3     59.5177   59.5177   58.7972    0.0000    0.0000    0.0000
       4    -45.3755   45.3755    0.0000   60.8423    0.0000    0.0000
       5      0.0000    0.0000    0.0000    0.0000   60.8423  -45.3755
       6      0.0000    0.0000    0.0000    0.0000  -45.3755   33.2803
-------------------------------------------------------------------------------


  Elastic Compliance Matrix: (Units=1/GPa)

-------------------------------------------------------------------------------
  Indices      1         2         3         4         5         6    
-------------------------------------------------------------------------------
       1   -0.402135  0.490162 -0.089106 -0.665466  0.000000  0.000000
       2    0.490162 -0.402135 -0.089106  0.665466  0.000000  0.000000
       3   -0.089106 -0.089106  0.197403  0.000000  0.000000  0.000000
       4   -0.665466  0.665466  0.000000 -0.976159  0.000000  0.000000
       5    0.000000  0.000000  0.000000  0.000000 -0.976159 -1.330932
       6    0.000000  0.000000  0.000000  0.000000 -1.330932 -1.784594
-------------------------------------------------------------------------------

  Mechanical properties :

-------------------------------------------------------------------------------
  Convention :                    Reuss         Voigt         Hill
-------------------------------------------------------------------------------
  Bulk  Modulus (GPa)     =      58.70590      62.28626      60.49608
  Shear Modulus (GPa)     =      -1.00766      38.02826      18.51030
-------------------------------------------------------------------------------
  Velocity S-wave (km/s)  =      -0.35507       2.18126       1.52181
  Velocity P-wave (km/s)  =       2.67897       3.75990       3.26449
-------------------------------------------------------------------------------
  Compressibility (1/GPa) =    0.01703406
-------------------------------------------------------------------------------
  Stress axis :                     x             y             z
-------------------------------------------------------------------------------
  Youngs Moduli (GPa)     =      -2.48673      -2.48673       5.06579
-------------------------------------------------------------------------------
  Poissons Ratio (x)      =                     1.21890       0.45139
  Poissons Ratio (y)      =       1.21890                     0.45139
  Poissons Ratio (z)      =      -0.22158      -0.22158
-------------------------------------------------------------------------------


  Piezoelectric Strain Matrix: (Units=C/m**2)

-------------------------------------------------------------------------------
  Indices      1         2         3         4         5         6    
-------------------------------------------------------------------------------
       x     0.00000   0.00000   0.00000   0.00000   0.00000   0.00000
       y     0.00000   0.00000   0.00000   0.00000   0.00000   0.00000
       z     0.00000   0.00000   0.00000   0.00000   0.00000   0.00000
-------------------------------------------------------------------------------


  Piezoelectric Stress Matrix: (Units=10**-11 C/N)

-------------------------------------------------------------------------------
  Indices      1         2         3         4         5         6    
-------------------------------------------------------------------------------
       x     0.00000   0.00000   0.00000   0.00000   0.00000   0.00000
       y     0.00000   0.00000   0.00000   0.00000   0.00000   0.00000
       z     0.00000   0.00000   0.00000   0.00000   0.00000   0.00000
-------------------------------------------------------------------------------


  Static dielectric constant tensor : 

-------------------------------------------------------------------------------
              x         y         z
-------------------------------------------------------------------------------
       x    -3.53000   0.00000   0.00000
       y     0.00000  -3.53000   0.00000
       z     0.00000   0.00000  -2.29075
--------------------------------------------------------------------------------

  High frequency dielectric constant tensor : 

-------------------------------------------------------------------------------
              x         y         z
-------------------------------------------------------------------------------
       x     1.60250   0.00000   0.00000
       y     0.00000   1.60250   0.00000
       z     0.00000   0.00000   1.62434
-------------------------------------------------------------------------------

  Static refractive indices : 

-------------------------------------------------------------------------------
    1 =   -1.87883      2 =   -1.87883      3 =   -1.51352
-------------------------------------------------------------------------------

  High frequency refractive indices : 

-------------------------------------------------------------------------------
    1 =    1.26590      2 =    1.26590      3 =    1.27450
-------------------------------------------------------------------------------


  Time to end of optimisation =       0.0810 seconds


  Peak dynamic memory used =       0.57 MB 


  Timing analysis for GULP :

--------------------------------------------------------------------------------
  Task / Subroutine                                          Time (Seconds)
--------------------------------------------------------------------------------
  Calculation of reciprocal space energy and derivatives          0.0011
  Calculation of reciprocal space energy using symmetry           0.0025
  Calculation of real space energy and derivatives                0.0097
  Calculation of real space energy using symmetry                 0.0638
  Symmetry generation of equivalent positions                     0.0003
--------------------------------------------------------------------------------
  Total CPU time                                                  0.0810
--------------------------------------------------------------------------------


  CIF file written as perov.cif                                               


  Job Finished at 09:26.34  6th April      2017                               

