********************************************************************************
*                       GENERAL UTILITY LATTICE PROGRAM                        *
*                                 Julian Gale                                  *
*                      Nanochemistry Research Institute                        *
*                           Department of Chemistry                            *
*                    Curtin University, Western Australia                      *
********************************************************************************
* Version = 4.3.2 * Last modified =  3rd March 2015                            *
********************************************************************************
*  optimise     - perform optimisation run                                     *
*  cell_only    - only optimise unit cell                                      *
*  property     - calculate properties for final geometry                      *
********************************************************************************

  Job Started  at 09:26.36  6th April      2017                               

  Number of CPUs =     1


  Total number of configurations input =   1

********************************************************************************
*  Input for Configuration =   1                                               *
********************************************************************************

  Formula = Tb2Ba2O6                                                    

  Number of irreducible atoms/shells =       4


  Total number atoms/shells =      16

  Dimensionality = 3               :  Bulk   


  Symmetry :

  Crystal family                   :  Hexagonal   
  Crystal class  (Groth - 1921)    :  Ditrigonal Scalenohedral             

  Space group (centrosymmetric)    :  R -3 C          

  Patterson group                  :  R -3 m   

  Cartesian lattice vectors (Angstroms) :

        3.039900    1.755087    4.922700
       -3.039900    1.755087    4.922700
        0.000000   -3.510174    4.922700

  Primitive cell parameters :            Full cell parameters :

  a =   6.0460    alpha =  60.3700       a =   6.0798    alpha =  90.0000
  b =   6.0460    beta  =  60.3700       b =   6.0798    beta  =  90.0000
  c =   6.0460    gamma =  60.3700       c =  14.7681    gamma = 120.0000

  Initial volumes (Angstroms**3):

  Primitive cell =         157.584170    Full cell =         472.752509

  Temperature of configuration =  0.000     K 

  Pressure of configuration =         0.000 GPa 

  Fractional coordinates of asymmetric unit :

--------------------------------------------------------------------------------
   No.  Atomic       x           y          z         Charge      Occupancy
        Label      (Frac)      (Frac)     (Frac)        (e)         (Frac)  
--------------------------------------------------------------------------------
      1 Tb    c    0.000000    0.000000    0.000000     1.00000    1.000000    
      2 Ba    c    0.000000    0.000000    0.250000     2.00000    1.000000    
      3 O     c    0.462400    0.000000    0.250000     0.37800    1.000000    
      4 O     s    0.462400    0.000000    0.250000    -1.37800    1.000000    
--------------------------------------------------------------------------------


  Constraints : 

--------------------------------------------------------------------------------
  Constraint no.      Unconstrained     Constrained    Coefficient    Offset
                         Variable         Variable
--------------------------------------------------------------------------------
           1              Strain 1        Strain 2       1.00000      0.0000
--------------------------------------------------------------------------------


********************************************************************************
*  General input information                                                   *
********************************************************************************

  Species output for all configurations : 

--------------------------------------------------------------------------------
  Species    Type    Atomic    Atomic    Charge       Radii (Angs)     Library
                     Number     Mass       (e)     Cova   Ionic  VDW   Symbol
--------------------------------------------------------------------------------
    Tb       Core       65     158.93   1.000000   1.760  0.000  2.630          
    Ba       Core       56     137.33   2.000000   1.340  0.000  2.000          
    O        Core        8      16.00   0.378000   0.730  0.000  1.360          
    O        Shell       8       0.00  -1.378000   0.730  0.000  1.360          
--------------------------------------------------------------------------------


  Lattice summation method               =    Ewald          (3-D)
                                         =    Parry          (2-D)
                                         =    Saunders et al (1-D)
  Accuracy factor for lattice sums       =   12.000


  Time limit = Infinity

  Maximum range for interatomic potentials =    100000.000000 Angstroms

  General interatomic potentials :

--------------------------------------------------------------------------------
Atom  Types   Potential         A         B         C         D     Cutoffs(Ang)
  1     2                                                            Min    Max 
--------------------------------------------------------------------------------
Ba   c Ba   c Buckingham    0.219E+04 0.192      0.00      0.00     0.000 10.000
Tb   c O    s Buckingham    0.148E+04 0.266      0.00      0.00     0.000 10.000
O    s O    s Buckingham     912.     0.271      13.8      0.00     0.000 10.000
Ba   c O    s Buckingham    0.352E+04 0.267      0.00      0.00     0.000 10.000
O    c O    s Spring (c-s)   24.3      0.00      0.00      0.00     0.000  0.800
--------------------------------------------------------------------------------

********************************************************************************
*  Output for configuration   1                                                *
********************************************************************************


  Components of energy : 

--------------------------------------------------------------------------------
  Interatomic potentials     =           6.38527986 eV
  Monopole - monopole (real) =         -21.18890185 eV
  Monopole - monopole (recip)=         -52.50061970 eV
  Monopole - monopole (total)=         -73.68952155 eV
--------------------------------------------------------------------------------
  Total lattice energy : 
    Primitive unit cell      =         -67.30424169 eV
    Non-primitive unit cell  =        -201.91272507 eV
--------------------------------------------------------------------------------
  Total lattice energy (in kJmol-1): 
    Primitive unit cell      =           -6493.8305 kJ/(mole unit cells)
    Non-primitive unit cell  =          -19481.4915 kJ/(mole unit cells)
--------------------------------------------------------------------------------


  Number of variables =        2

  Maximum number of calculations  =          1000
  Maximum Hessian update interval =            10
  Maximum step size               =   1.000000000
  Maximum parameter tolerance     =   0.000010000
  Maximum function  tolerance     =   0.000010000
  Maximum gradient  tolerance     =   0.001000000
  Maximum gradient  component     =   0.010000000

  Symmetry constrained optimisation

  Symmetry used for second derivatives

  Cell parameters to be optimised using strains

  Newton-Raphson optimiser to be used

  BFGS hessian update to be used

  Start of bulk optimisation :

  Cycle:      0 Energy:       -67.304242  Gnorm:      6.243993  CPU:    0.007
  ** Hessian calculated **
  Cycle:      1 Energy:       -67.623083  Gnorm:      0.766337  CPU:    0.015
  Cycle:      2 Energy:       -67.626855  Gnorm:      0.129627  CPU:    0.024
  Cycle:      3 Energy:       -67.626971  Gnorm:      0.000146  CPU:    0.032


  **** Optimisation achieved ****


  Final energy =     -67.62697065 eV
  Final Gnorm  =       0.00000046

  Components of energy : 

--------------------------------------------------------------------------------
  Interatomic potentials     =           8.84682771 eV
  Monopole - monopole (real) =         -21.99280842 eV
  Monopole - monopole (recip)=         -54.48098994 eV
  Monopole - monopole (total)=         -76.47379836 eV
--------------------------------------------------------------------------------
  Total lattice energy : 
    Primitive unit cell      =         -67.62697065 eV
    Non-primitive unit cell  =        -202.88091195 eV
--------------------------------------------------------------------------------
  Total lattice energy (in kJmol-1): 
    Primitive unit cell      =           -6524.9689 kJ/(mole unit cells)
    Non-primitive unit cell  =          -19574.9067 kJ/(mole unit cells)
--------------------------------------------------------------------------------

  Final asymmetric unit coordinates :

--------------------------------------------------------------------------------
   No.  Atomic        x           y           z         Radius
        Label       (Frac)      (Frac)      (Frac)       (Angs) 
--------------------------------------------------------------------------------
     1  Tb    c     0.000000    0.000000    0.000000    0.000000
     2  Ba    c     0.000000    0.000000    0.250000    0.000000
     3  O     c     0.462400    0.000000    0.250000    0.000000
     4  O     s     0.462400    0.000000    0.250000    0.000000
--------------------------------------------------------------------------------

  Final Cartesian lattice vectors (Angstroms) :

        2.925389    1.688974    4.756807
       -2.925389    1.688974    4.756807
        0.000000   -3.377948    4.756807


  Final cell parameters and derivatives :

--------------------------------------------------------------------------------
       a            5.834187 Angstrom     dE/de1(xx)     0.000000 eV/strain
       b            5.834187 Angstrom     dE/de2(yy)     0.000000 eV/strain
       c            5.834187 Angstrom     dE/de3(zz)    -0.000001 eV/strain
       alpha       60.188217 Degrees      dE/de4(yz)     0.000000 eV/strain
       beta        60.188217 Degrees      dE/de5(xz)     0.000000 eV/strain
       gamma       60.188217 Degrees      dE/de6(xy)     0.000000 eV/strain
--------------------------------------------------------------------------------

  Primitive cell volume =           141.017580 Angs**3

  Density of cell =      8.107731 g/cm**3

  Non-primitive lattice parameters :

  a    =     5.850777  b   =     5.850777  c    =    14.270420
  alpha=    90.000000  beta=    90.000000  gamma=   120.000000

  Non-primitive cell volume =           423.052740 Angs**3


  Final internal derivatives :

--------------------------------------------------------------------------------
   No.  Atomic          a             b             c           Radius
        Label          (eV)          (eV)          (eV)        (eV/Angs)
--------------------------------------------------------------------------------
      1 Tb    c       0.000000      0.000000      0.000000      0.000000
      2 Ba    c       0.000000      0.000000      0.000000      0.000000
      3 O     c       0.000000      0.000000      0.000000      0.000000
      4 O     s       0.000000      0.000000      0.000000      0.000000
--------------------------------------------------------------------------------
  Maximum abs         0.000000      0.000000      0.000000      0.000000
--------------------------------------------------------------------------------


  Born effective charge tensors : 

-------------------------------------------------------------------------------
  Atom             x           y             z
-------------------------------------------------------------------------------
   1 Tb    x       0.5419     -0.0107      0.0000
           y       0.0107      0.5419      0.0000
           z       0.0000      0.0000      0.5518
-------------------------------------------------------------------------------
   2 Ba    x       2.2583      0.0000      0.0000
           y       0.0000      2.2583      0.0000
           z       0.0000      0.0000      2.2882
-------------------------------------------------------------------------------
   3 O     x      -1.0815      0.0000      0.0000
           y       0.0000     -0.7853      0.2261
           z       0.0000      0.2279     -0.9467
-------------------------------------------------------------------------------




  Elastic Constant Matrix: (Units=GPa)

-------------------------------------------------------------------------------
  Indices      1         2         3         4         5         6    
-------------------------------------------------------------------------------
       1    112.1471   31.6007   55.6729  -34.9084    0.0000    0.0000
       2     31.6007  112.1471   55.6729   34.9084    0.0000    0.0000
       3     55.6729   55.6729   76.2234    0.0000    0.0000    0.0000
       4    -34.9084   34.9084    0.0000   58.0692    0.0000    0.0000
       5      0.0000    0.0000    0.0000    0.0000   58.0692  -34.9084
       6      0.0000    0.0000    0.0000    0.0000  -34.9084   40.2732
-------------------------------------------------------------------------------


  Elastic Compliance Matrix: (Units=1/GPa)

-------------------------------------------------------------------------------
  Indices      1         2         3         4         5         6    
-------------------------------------------------------------------------------
       1    0.020972 -0.004951 -0.011701  0.015584  0.000000  0.000000
       2   -0.004951  0.020972 -0.011701 -0.015584  0.000000  0.000000
       3   -0.011701 -0.011701  0.030212  0.000000  0.000000  0.000000
       4    0.015584 -0.015584  0.000000  0.035957  0.000000  0.000000
       5    0.000000  0.000000  0.000000  0.000000  0.035957  0.031167
       6    0.000000  0.000000  0.000000  0.000000  0.031167  0.051846
-------------------------------------------------------------------------------

  Mechanical properties :

-------------------------------------------------------------------------------
  Convention :                    Reuss         Voigt         Hill
-------------------------------------------------------------------------------
  Bulk  Modulus (GPa)     =      64.73207      65.15672      64.94439
  Shear Modulus (GPa)     =      19.39704      41.78704      30.59204
-------------------------------------------------------------------------------
  Velocity S-wave (km/s)  =       1.54674       2.27024       1.94247
  Velocity P-wave (km/s)  =       3.34274       3.86113       3.61125
-------------------------------------------------------------------------------
  Compressibility (1/GPa) =    0.01544829
-------------------------------------------------------------------------------
  Stress axis :                     x             y             z
-------------------------------------------------------------------------------
  Youngs Moduli (GPa)     =      47.68370      47.68370      33.09964
-------------------------------------------------------------------------------
  Poissons Ratio (x)      =                     0.23611       0.38730
  Poissons Ratio (y)      =       0.23611                     0.38730
  Poissons Ratio (z)      =       0.55794       0.55794
-------------------------------------------------------------------------------


  Piezoelectric Strain Matrix: (Units=C/m**2)

-------------------------------------------------------------------------------
  Indices      1         2         3         4         5         6    
-------------------------------------------------------------------------------
       x     0.00000   0.00000   0.00000   0.00000   0.00000   0.00000
       y     0.00000   0.00000   0.00000   0.00000   0.00000   0.00000
       z     0.00000   0.00000   0.00000   0.00000   0.00000   0.00000
-------------------------------------------------------------------------------


  Piezoelectric Stress Matrix: (Units=10**-11 C/N)

-------------------------------------------------------------------------------
  Indices      1         2         3         4         5         6    
-------------------------------------------------------------------------------
       x     0.00000   0.00000   0.00000   0.00000   0.00000   0.00000
       y     0.00000   0.00000   0.00000   0.00000   0.00000   0.00000
       z     0.00000   0.00000   0.00000   0.00000   0.00000   0.00000
-------------------------------------------------------------------------------


  Static dielectric constant tensor : 

-------------------------------------------------------------------------------
              x         y         z
-------------------------------------------------------------------------------
       x    -6.74660   0.00000   0.00000
       y     0.00000  -6.74660   0.00000
       z     0.00000   0.00000  -4.14277
--------------------------------------------------------------------------------

  High frequency dielectric constant tensor : 

-------------------------------------------------------------------------------
              x         y         z
-------------------------------------------------------------------------------
       x     1.60241   0.00000   0.00000
       y     0.00000   1.60241   0.00000
       z     0.00000   0.00000   1.60923
-------------------------------------------------------------------------------

  Static refractive indices : 

-------------------------------------------------------------------------------
    1 =   -2.59742      2 =   -2.59742      3 =   -2.03538
-------------------------------------------------------------------------------

  High frequency refractive indices : 

-------------------------------------------------------------------------------
    1 =    1.26586      2 =    1.26586      3 =    1.26856
-------------------------------------------------------------------------------


  Time to end of optimisation =       0.0526 seconds


  Peak dynamic memory used =       0.57 MB 


  Timing analysis for GULP :

--------------------------------------------------------------------------------
  Task / Subroutine                                          Time (Seconds)
--------------------------------------------------------------------------------
  Calculation of reciprocal space energy and derivatives          0.0009
  Calculation of reciprocal space energy using symmetry           0.0015
  Calculation of real space energy and derivatives                0.0104
  Calculation of real space energy using symmetry                 0.0364
  Symmetry generation of equivalent positions                     0.0003
--------------------------------------------------------------------------------
  Total CPU time                                                  0.0527
--------------------------------------------------------------------------------


  CIF file written as perov.cif                                               


  Job Finished at 09:26.36  6th April      2017                               

