********************************************************************************
*                       GENERAL UTILITY LATTICE PROGRAM                        *
*                                 Julian Gale                                  *
*                      Nanochemistry Research Institute                        *
*                           Department of Chemistry                            *
*                    Curtin University, Western Australia                      *
********************************************************************************
* Version = 4.3.2 * Last modified =  3rd March 2015                            *
********************************************************************************
*  optimise     - perform optimisation run                                     *
*  cell_only    - only optimise unit cell                                      *
*  property     - calculate properties for final geometry                      *
********************************************************************************

  Job Started  at 09:26.40  6th April      2017                               

  Number of CPUs =     1


  Total number of configurations input =   1

********************************************************************************
*  Input for Configuration =   1                                               *
********************************************************************************

  Formula = Tb2Ba2O6                                                    

  Number of irreducible atoms/shells =       4


  Total number atoms/shells =      16

  Dimensionality = 3               :  Bulk   


  Symmetry :

  Crystal family                   :  Hexagonal   
  Crystal class  (Groth - 1921)    :  Ditrigonal Scalenohedral             

  Space group (centrosymmetric)    :  R -3 C          

  Patterson group                  :  R -3 m   

  Cartesian lattice vectors (Angstroms) :

        3.039900    1.755087    4.922700
       -3.039900    1.755087    4.922700
        0.000000   -3.510174    4.922700

  Primitive cell parameters :            Full cell parameters :

  a =   6.0460    alpha =  60.3700       a =   6.0798    alpha =  90.0000
  b =   6.0460    beta  =  60.3700       b =   6.0798    beta  =  90.0000
  c =   6.0460    gamma =  60.3700       c =  14.7681    gamma = 120.0000

  Initial volumes (Angstroms**3):

  Primitive cell =         157.584170    Full cell =         472.752509

  Temperature of configuration =  0.000     K 

  Pressure of configuration =         0.000 GPa 

  Fractional coordinates of asymmetric unit :

--------------------------------------------------------------------------------
   No.  Atomic       x           y          z         Charge      Occupancy
        Label      (Frac)      (Frac)     (Frac)        (e)         (Frac)  
--------------------------------------------------------------------------------
      1 Tb    c    0.000000    0.000000    0.000000     1.50000    1.000000    
      2 Ba    c    0.000000    0.000000    0.250000     1.90000    1.000000    
      3 O     c    0.462400    0.000000    0.250000     0.37800    1.000000    
      4 O     s    0.462400    0.000000    0.250000    -1.51133    1.000000    
--------------------------------------------------------------------------------


  Constraints : 

--------------------------------------------------------------------------------
  Constraint no.      Unconstrained     Constrained    Coefficient    Offset
                         Variable         Variable
--------------------------------------------------------------------------------
           1              Strain 1        Strain 2       1.00000      0.0000
--------------------------------------------------------------------------------


********************************************************************************
*  General input information                                                   *
********************************************************************************

  Species output for all configurations : 

--------------------------------------------------------------------------------
  Species    Type    Atomic    Atomic    Charge       Radii (Angs)     Library
                     Number     Mass       (e)     Cova   Ionic  VDW   Symbol
--------------------------------------------------------------------------------
    Tb       Core       65     158.93   1.500000   1.760  0.000  2.630          
    Ba       Core       56     137.33   1.900000   1.340  0.000  2.000          
    O        Core        8      16.00   0.378000   0.730  0.000  1.360          
    O        Shell       8       0.00  -1.511333   0.730  0.000  1.360          
--------------------------------------------------------------------------------


  Lattice summation method               =    Ewald          (3-D)
                                         =    Parry          (2-D)
                                         =    Saunders et al (1-D)
  Accuracy factor for lattice sums       =   12.000


  Time limit = Infinity

  Maximum range for interatomic potentials =    100000.000000 Angstroms

  General interatomic potentials :

--------------------------------------------------------------------------------
Atom  Types   Potential         A         B         C         D     Cutoffs(Ang)
  1     2                                                            Min    Max 
--------------------------------------------------------------------------------
Ba   c Ba   c Buckingham    0.219E+04 0.192      0.00      0.00     0.000 10.000
Tb   c O    s Buckingham    0.148E+04 0.266      0.00      0.00     0.000 10.000
O    s O    s Buckingham     912.     0.271      13.8      0.00     0.000 10.000
Ba   c O    s Buckingham    0.352E+04 0.267      0.00      0.00     0.000 10.000
O    c O    s Spring (c-s)   29.3      0.00      0.00      0.00     0.000  0.800
--------------------------------------------------------------------------------

********************************************************************************
*  Output for configuration   1                                                *
********************************************************************************


  Components of energy : 

--------------------------------------------------------------------------------
  Interatomic potentials     =           6.38527986 eV
  Monopole - monopole (real) =         -30.24935025 eV
  Monopole - monopole (recip)=         -64.40324843 eV
  Monopole - monopole (total)=         -94.65259868 eV
--------------------------------------------------------------------------------
  Total lattice energy : 
    Primitive unit cell      =         -88.26731882 eV
    Non-primitive unit cell  =        -264.80195646 eV
--------------------------------------------------------------------------------
  Total lattice energy (in kJmol-1): 
    Primitive unit cell      =           -8516.4470 kJ/(mole unit cells)
    Non-primitive unit cell  =          -25549.3409 kJ/(mole unit cells)
--------------------------------------------------------------------------------


  Number of variables =        2

  Maximum number of calculations  =          1000
  Maximum Hessian update interval =            10
  Maximum step size               =   1.000000000
  Maximum parameter tolerance     =   0.000010000
  Maximum function  tolerance     =   0.000010000
  Maximum gradient  tolerance     =   0.001000000
  Maximum gradient  component     =   0.010000000

  Symmetry constrained optimisation

  Symmetry used for second derivatives

  Cell parameters to be optimised using strains

  Newton-Raphson optimiser to be used

  BFGS hessian update to be used

  Start of bulk optimisation :

  Cycle:      0 Energy:       -88.267319  Gnorm:     14.151394  CPU:    0.007
  ** Hessian calculated **
  Cycle:      1 Energy:       -89.740890  Gnorm:      3.906704  CPU:    0.015
  Cycle:      2 Energy:       -89.807265  Gnorm:      1.285606  CPU:    0.024
  Cycle:      3 Energy:       -89.816393  Gnorm:      0.002848  CPU:    0.034


  **** Optimisation achieved ****


  Final energy =     -89.81639284 eV
  Final Gnorm  =       0.00006922

  Components of energy : 

--------------------------------------------------------------------------------
  Interatomic potentials     =          12.21261075 eV
  Monopole - monopole (real) =         -32.61148959 eV
  Monopole - monopole (recip)=         -69.41751400 eV
  Monopole - monopole (total)=        -102.02900359 eV
--------------------------------------------------------------------------------
  Total lattice energy : 
    Primitive unit cell      =         -89.81639284 eV
    Non-primitive unit cell  =        -269.44917851 eV
--------------------------------------------------------------------------------
  Total lattice energy (in kJmol-1): 
    Primitive unit cell      =           -8665.9089 kJ/(mole unit cells)
    Non-primitive unit cell  =          -25997.7268 kJ/(mole unit cells)
--------------------------------------------------------------------------------

  Final asymmetric unit coordinates :

--------------------------------------------------------------------------------
   No.  Atomic        x           y           z         Radius
        Label       (Frac)      (Frac)      (Frac)       (Angs) 
--------------------------------------------------------------------------------
     1  Tb    c     0.000000    0.000000    0.000000    0.000000
     2  Ba    c     0.000000    0.000000    0.250000    0.000000
     3  O     c     0.462400    0.000000    0.250000    0.000000
     4  O     s     0.462400    0.000000    0.250000    0.000000
--------------------------------------------------------------------------------

  Final Cartesian lattice vectors (Angstroms) :

        2.815948    1.625788    4.581347
       -2.815948    1.625788    4.581347
        0.000000   -3.251577    4.581347


  Final cell parameters and derivatives :

--------------------------------------------------------------------------------
       a            5.617962 Angstrom     dE/de1(xx)     0.000133 eV/strain
       b            5.617962 Angstrom     dE/de2(yy)     0.000000 eV/strain
       c            5.617962 Angstrom     dE/de3(zz)     0.000038 eV/strain
       alpha       60.164165 Degrees      dE/de4(yz)     0.000000 eV/strain
       beta        60.164165 Degrees      dE/de5(xz)     0.000000 eV/strain
       gamma       60.164165 Degrees      dE/de6(xy)     0.000000 eV/strain
--------------------------------------------------------------------------------

  Primitive cell volume =           125.844173 Angs**3

  Density of cell =      9.085304 g/cm**3

  Non-primitive lattice parameters :

  a    =     5.631896  b   =     5.631896  c    =    13.744042
  alpha=    90.000000  beta=    90.000000  gamma=   120.000000

  Non-primitive cell volume =           377.532519 Angs**3


  Final internal derivatives :

--------------------------------------------------------------------------------
   No.  Atomic          a             b             c           Radius
        Label          (eV)          (eV)          (eV)        (eV/Angs)
--------------------------------------------------------------------------------
      1 Tb    c       0.000000      0.000000      0.000000      0.000000
      2 Ba    c       0.000000      0.000000      0.000000      0.000000
      3 O     c       0.000000      0.000000      0.000000      0.000000
      4 O     s       0.000000      0.000000      0.000000      0.000000
--------------------------------------------------------------------------------
  Maximum abs         0.000000      0.000000      0.000000      0.000000
--------------------------------------------------------------------------------


  Born effective charge tensors : 

-------------------------------------------------------------------------------
  Atom             x           y             z
-------------------------------------------------------------------------------
   1 Tb    x       0.9898     -0.0003      0.0000
           y       0.0003      0.9898      0.0000
           z       0.0000      0.0000      0.9916
-------------------------------------------------------------------------------
   2 Ba    x       2.0832      0.0000      0.0000
           y       0.0000      2.0832      0.0000
           z       0.0000      0.0000      2.1257
-------------------------------------------------------------------------------
   3 O     x      -1.1160      0.0000      0.0000
           y       0.0000     -0.9327      0.1501
           z       0.0000      0.1501     -1.0391
-------------------------------------------------------------------------------




  Elastic Constant Matrix: (Units=GPa)

-------------------------------------------------------------------------------
  Indices      1         2         3         4         5         6    
-------------------------------------------------------------------------------
       1    145.4494   74.2625   65.8246  -11.4092    0.0000    0.0000
       2     74.2625  145.4494   65.8246   11.4092    0.0000    0.0000
       3     65.8246   65.8246  137.5572    0.0000    0.0000    0.0000
       4    -11.4092   11.4092    0.0000   60.7578    0.0000    0.0000
       5      0.0000    0.0000    0.0000    0.0000   60.7578  -11.4092
       6      0.0000    0.0000    0.0000    0.0000  -11.4092   35.5935
-------------------------------------------------------------------------------


  Elastic Compliance Matrix: (Units=1/GPa)

-------------------------------------------------------------------------------
  Indices      1         2         3         4         5         6    
-------------------------------------------------------------------------------
       1    0.010664 -0.004283 -0.003053  0.002807  0.000000  0.000000
       2   -0.004283  0.010664 -0.003053 -0.002807  0.000000  0.000000
       3   -0.003053 -0.003053  0.010192  0.000000  0.000000  0.000000
       4    0.002807 -0.002807  0.000000  0.017513  0.000000  0.000000
       5    0.000000  0.000000  0.000000  0.000000  0.017513  0.005614
       6    0.000000  0.000000  0.000000  0.000000  0.005614  0.029894
-------------------------------------------------------------------------------

  Mechanical properties :

-------------------------------------------------------------------------------
  Convention :                    Reuss         Voigt         Hill
-------------------------------------------------------------------------------
  Bulk  Modulus (GPa)     =      93.10843      93.36439      93.23641
  Shear Modulus (GPa)     =      41.39045      46.25809      43.82427
-------------------------------------------------------------------------------
  Velocity S-wave (km/s)  =       2.13442       2.25644       2.19628
  Velocity P-wave (km/s)  =       4.04012       4.13100       4.08581
-------------------------------------------------------------------------------
  Compressibility (1/GPa) =    0.01074017
-------------------------------------------------------------------------------
  Stress axis :                     x             y             z
-------------------------------------------------------------------------------
  Youngs Moduli (GPa)     =      93.77231      93.77231      98.11573
-------------------------------------------------------------------------------
  Poissons Ratio (x)      =                     0.40164       0.29959
  Poissons Ratio (y)      =       0.40164                     0.29959
  Poissons Ratio (z)      =       0.28633       0.28633
-------------------------------------------------------------------------------


  Piezoelectric Strain Matrix: (Units=C/m**2)

-------------------------------------------------------------------------------
  Indices      1         2         3         4         5         6    
-------------------------------------------------------------------------------
       x     0.00000   0.00000   0.00000   0.00000   0.00000   0.00000
       y     0.00000   0.00000   0.00000   0.00000   0.00000   0.00000
       z     0.00000   0.00000   0.00000   0.00000   0.00000   0.00000
-------------------------------------------------------------------------------


  Piezoelectric Stress Matrix: (Units=10**-11 C/N)

-------------------------------------------------------------------------------
  Indices      1         2         3         4         5         6    
-------------------------------------------------------------------------------
       x     0.00000   0.00000   0.00000   0.00000   0.00000   0.00000
       y     0.00000   0.00000   0.00000   0.00000   0.00000   0.00000
       z     0.00000   0.00000   0.00000   0.00000   0.00000   0.00000
-------------------------------------------------------------------------------


  Static dielectric constant tensor : 

-------------------------------------------------------------------------------
              x         y         z
-------------------------------------------------------------------------------
       x    30.54661   0.00000   0.00000
       y     0.00000  30.54661   0.00000
       z     0.00000   0.00000 -13.48776
--------------------------------------------------------------------------------

  High frequency dielectric constant tensor : 

-------------------------------------------------------------------------------
              x         y         z
-------------------------------------------------------------------------------
       x     1.66004   0.00000   0.00000
       y     0.00000   1.66004   0.00000
       z     0.00000   0.00000   1.66779
-------------------------------------------------------------------------------

  Static refractive indices : 

-------------------------------------------------------------------------------
    1 =   -3.67257      2 =    5.52690      3 =    5.52690
-------------------------------------------------------------------------------

  High frequency refractive indices : 

-------------------------------------------------------------------------------
    1 =    1.28842      2 =    1.28842      3 =    1.29143
-------------------------------------------------------------------------------


  Time to end of optimisation =       0.0549 seconds


  Peak dynamic memory used =       0.57 MB 


  Timing analysis for GULP :

--------------------------------------------------------------------------------
  Task / Subroutine                                          Time (Seconds)
--------------------------------------------------------------------------------
  Calculation of reciprocal space energy and derivatives          0.0010
  Calculation of reciprocal space energy using symmetry           0.0016
  Calculation of real space energy and derivatives                0.0105
  Calculation of real space energy using symmetry                 0.0384
  Symmetry generation of equivalent positions                     0.0003
--------------------------------------------------------------------------------
  Total CPU time                                                  0.0550
--------------------------------------------------------------------------------


  CIF file written as perov.cif                                               


  Job Finished at 09:26.40  6th April      2017                               

