********************************************************************************
*                       GENERAL UTILITY LATTICE PROGRAM                        *
*                                 Julian Gale                                  *
*                      Nanochemistry Research Institute                        *
*                           Department of Chemistry                            *
*                    Curtin University, Western Australia                      *
********************************************************************************
* Version = 4.3.2 * Last modified =  3rd March 2015                            *
********************************************************************************
*  optimise     - perform optimisation run                                     *
*  cell_only    - only optimise unit cell                                      *
*  property     - calculate properties for final geometry                      *
********************************************************************************

  Job Started  at 09:26.34  6th April      2017                               

  Number of CPUs =     1


  Total number of configurations input =   1

********************************************************************************
*  Input for Configuration =   1                                               *
********************************************************************************

  Formula = Tb2Ba2O6                                                    

  Number of irreducible atoms/shells =       4


  Total number atoms/shells =      16

  Dimensionality = 3               :  Bulk   


  Symmetry :

  Crystal family                   :  Hexagonal   
  Crystal class  (Groth - 1921)    :  Ditrigonal Scalenohedral             

  Space group (centrosymmetric)    :  R -3 C          

  Patterson group                  :  R -3 m   

  Cartesian lattice vectors (Angstroms) :

        3.039900    1.755087    4.922700
       -3.039900    1.755087    4.922700
        0.000000   -3.510174    4.922700

  Primitive cell parameters :            Full cell parameters :

  a =   6.0460    alpha =  60.3700       a =   6.0798    alpha =  90.0000
  b =   6.0460    beta  =  60.3700       b =   6.0798    beta  =  90.0000
  c =   6.0460    gamma =  60.3700       c =  14.7681    gamma = 120.0000

  Initial volumes (Angstroms**3):

  Primitive cell =         157.584170    Full cell =         472.752509

  Temperature of configuration =  0.000     K 

  Pressure of configuration =         0.000 GPa 

  Fractional coordinates of asymmetric unit :

--------------------------------------------------------------------------------
   No.  Atomic       x           y          z         Charge      Occupancy
        Label      (Frac)      (Frac)     (Frac)        (e)         (Frac)  
--------------------------------------------------------------------------------
      1 Tb    c    0.000000    0.000000    0.000000     0.70000    1.000000    
      2 Ba    c    0.000000    0.000000    0.250000     2.50000    1.000000    
      3 O     c    0.462400    0.000000    0.250000     0.37800    1.000000    
      4 O     s    0.462400    0.000000    0.250000    -1.44467    1.000000    
--------------------------------------------------------------------------------


  Constraints : 

--------------------------------------------------------------------------------
  Constraint no.      Unconstrained     Constrained    Coefficient    Offset
                         Variable         Variable
--------------------------------------------------------------------------------
           1              Strain 1        Strain 2       1.00000      0.0000
--------------------------------------------------------------------------------


********************************************************************************
*  General input information                                                   *
********************************************************************************

  Species output for all configurations : 

--------------------------------------------------------------------------------
  Species    Type    Atomic    Atomic    Charge       Radii (Angs)     Library
                     Number     Mass       (e)     Cova   Ionic  VDW   Symbol
--------------------------------------------------------------------------------
    Tb       Core       65     158.93   0.700000   1.760  0.000  2.630          
    Ba       Core       56     137.33   2.500000   1.340  0.000  2.000          
    O        Core        8      16.00   0.378000   0.730  0.000  1.360          
    O        Shell       8       0.00  -1.444667   0.730  0.000  1.360          
--------------------------------------------------------------------------------


  Lattice summation method               =    Ewald          (3-D)
                                         =    Parry          (2-D)
                                         =    Saunders et al (1-D)
  Accuracy factor for lattice sums       =   12.000


  Time limit = Infinity

  Maximum range for interatomic potentials =    100000.000000 Angstroms

  General interatomic potentials :

--------------------------------------------------------------------------------
Atom  Types   Potential         A         B         C         D     Cutoffs(Ang)
  1     2                                                            Min    Max 
--------------------------------------------------------------------------------
Ba   c Ba   c Buckingham    0.219E+04 0.192      0.00      0.00     0.000 10.000
Tb   c O    s Buckingham    0.148E+04 0.266      0.00      0.00     0.000 10.000
O    s O    s Buckingham     912.     0.271      13.8      0.00     0.000 10.000
Ba   c O    s Buckingham    0.352E+04 0.267      0.00      0.00     0.000 10.000
O    c O    s Spring (c-s)   26.8      0.00      0.00      0.00     0.000  0.800
--------------------------------------------------------------------------------

********************************************************************************
*  Output for configuration   1                                                *
********************************************************************************


  Components of energy : 

--------------------------------------------------------------------------------
  Interatomic potentials     =           6.38527986 eV
  Monopole - monopole (real) =         -21.60502105 eV
  Monopole - monopole (recip)=         -65.80344183 eV
  Monopole - monopole (total)=         -87.40846288 eV
--------------------------------------------------------------------------------
  Total lattice energy : 
    Primitive unit cell      =         -81.02318301 eV
    Non-primitive unit cell  =        -243.06954904 eV
--------------------------------------------------------------------------------
  Total lattice energy (in kJmol-1): 
    Primitive unit cell      =           -7817.4986 kJ/(mole unit cells)
    Non-primitive unit cell  =          -23452.4958 kJ/(mole unit cells)
--------------------------------------------------------------------------------


  Number of variables =        2

  Maximum number of calculations  =          1000
  Maximum Hessian update interval =            10
  Maximum step size               =   1.000000000
  Maximum parameter tolerance     =   0.000010000
  Maximum function  tolerance     =   0.000010000
  Maximum gradient  tolerance     =   0.001000000
  Maximum gradient  component     =   0.010000000

  Symmetry constrained optimisation

  Symmetry used for second derivatives

  Cell parameters to be optimised using strains

  Newton-Raphson optimiser to be used

  BFGS hessian update to be used

  Start of bulk optimisation :

  Cycle:      0 Energy:       -81.023183  Gnorm:     11.370240  CPU:    0.007
  ** Hessian calculated **
  Cycle:      1 Energy:       -82.016575  Gnorm:      2.601091  CPU:    0.015
  Cycle:      2 Energy:       -82.050490  Gnorm:      0.740935  CPU:    0.024
  Cycle:      3 Energy:       -82.053709  Gnorm:      0.005130  CPU:    0.034
  ** Hessian calculated **
  Cycle:      4 Energy:       -82.053710  Gnorm:      0.009823  CPU:    0.046
  Cycle:      5 Energy:       -82.053711  Gnorm:      0.010927  CPU:    0.054
  ** Hessian calculated **
  Cycle:      6 Energy:       -82.053713  Gnorm:      0.007019  CPU:    0.065
  Cycle:      7 Energy:       -82.053714  Gnorm:      0.007650  CPU:    0.074
  ** Hessian calculated **
  Cycle:      8 Energy:       -82.053715  Gnorm:      0.013793  CPU:    0.085
  Cycle:      9 Energy:       -82.053718  Gnorm:      0.015334  CPU:    0.095
  ** Hessian calculated **
  Cycle:     10 Energy:       -82.053720  Gnorm:      0.010552  CPU:    0.108
  Cycle:     11 Energy:       -82.053723  Gnorm:      0.011571  CPU:    0.117
  ** Hessian calculated **
  Cycle:     12 Energy:       -82.053726  Gnorm:      0.019544  CPU:    0.129
  Cycle:     13 Energy:       -82.053732  Gnorm:      0.021722  CPU:    0.138
  ** Hessian calculated **
  Cycle:     14 Energy:       -82.053737  Gnorm:      0.016149  CPU:    0.150
  Cycle:     15 Energy:       -82.053743  Gnorm:      0.017848  CPU:    0.159
  ** Hessian calculated **
  Cycle:     16 Energy:       -82.053750  Gnorm:      0.028046  CPU:    0.172
  Cycle:     17 Energy:       -82.053762  Gnorm:      0.031181  CPU:    0.182
  ** Hessian calculated **
  Cycle:     18 Energy:       -82.053774  Gnorm:      0.024920  CPU:    0.195
  Cycle:     19 Energy:       -82.053787  Gnorm:      0.027952  CPU:    0.203
  ** Hessian calculated **
  Cycle:     20 Energy:       -82.053804  Gnorm:      0.041064  CPU:    0.215
  Cycle:     21 Energy:       -82.054029  Gnorm:      0.069865  CPU:    0.234
  ** Hessian calculated **
  Cycle:     22 Energy:       -82.054118  Gnorm:      0.082349  CPU:    0.247
  Cycle:     23 Energy:       -82.054180  Gnorm:      0.090479  CPU:    0.260
  ** Hessian calculated **
  Cycle:     24 Energy:       -82.054187  Gnorm:      0.087203  CPU:    0.276
  Cycle:     25 Energy:       -82.054187  Gnorm:      0.087203  CPU:    0.284
  ** Hessian calculated **
  Cycle:     26 Energy:       -82.054187  Gnorm:      0.087195  CPU:    0.302
  Cycle:     27 Energy:       -82.054187  Gnorm:      0.087188  CPU:    0.311
  Cycle:     28 Energy:       -82.054187  Gnorm:      0.087184  CPU:    0.325
  Cycle:     29 Energy:       -82.054187  Gnorm:      0.087153  CPU:    0.338
  Cycle:     30 Energy:       -82.054188  Gnorm:      0.086809  CPU:    0.353
  Cycle:     31 Energy:       -82.054188  Gnorm:      0.086657  CPU:    0.368
  Cycle:     32 Energy:       -82.054188  Gnorm:      0.086657  CPU:    0.376
  ** Hessian calculated **
  Cycle:     33 Energy:       -82.054188  Gnorm:      0.086657  CPU:    0.394
  ** Hessian calculated **


  **** Conditions for a minimum have not been satisfied. However ****
  **** no lower point can be found - treat results with caution  ****
  **** unless gradient norm is small (less than 0.1)             ****


  Final energy =     -82.05418786 eV
  Final Gnorm  =       0.08665691

  Components of energy : 

--------------------------------------------------------------------------------
  Interatomic potentials     =          11.05556821 eV
  Monopole - monopole (real) =         -23.04349725 eV
  Monopole - monopole (recip)=         -70.06625882 eV
  Monopole - monopole (total)=         -93.10975607 eV
--------------------------------------------------------------------------------
  Total lattice energy : 
    Primitive unit cell      =         -82.05418786 eV
    Non-primitive unit cell  =        -246.16256357 eV
--------------------------------------------------------------------------------
  Total lattice energy (in kJmol-1): 
    Primitive unit cell      =           -7916.9748 kJ/(mole unit cells)
    Non-primitive unit cell  =          -23750.9244 kJ/(mole unit cells)
--------------------------------------------------------------------------------

  Final asymmetric unit coordinates :

--------------------------------------------------------------------------------
   No.  Atomic        x           y           z         Radius
        Label       (Frac)      (Frac)      (Frac)       (Angs) 
--------------------------------------------------------------------------------
     1  Tb    c     0.000000    0.000000    0.000000    0.000000
     2  Ba    c     0.000000    0.000000    0.250000    0.000000
     3  O     c     0.462400    0.000000    0.250000    0.000000
     4  O     s     0.462400    0.000000    0.250000    0.000000
--------------------------------------------------------------------------------

  Final Cartesian lattice vectors (Angstroms) :

        2.823640    1.630230    4.726768
       -2.823640    1.630230    4.726768
        0.000000   -3.260459    4.726768


  Final cell parameters and derivatives :

--------------------------------------------------------------------------------
       a            5.742206 Angstrom     dE/de1(xx)    -0.089828 eV/strain
       b            5.742206 Angstrom     dE/de2(yy)     0.000000 eV/strain
       c            5.742206 Angstrom     dE/de3(zz)    -0.148218 eV/strain
       alpha       58.909285 Degrees      dE/de4(yz)     0.000000 eV/strain
       beta        58.909285 Degrees      dE/de5(xz)     0.000000 eV/strain
       gamma       58.909285 Degrees      dE/de6(xy)     0.000000 eV/strain
--------------------------------------------------------------------------------

  Primitive cell volume =           130.549050 Angs**3

  Density of cell =      8.757877 g/cm**3

  Non-primitive lattice parameters :

  a    =     5.647281  b   =     5.647281  c    =    14.180305
  alpha=    90.000000  beta=    90.000000  gamma=   120.000000

  Non-primitive cell volume =           391.647151 Angs**3


  Final internal derivatives :

--------------------------------------------------------------------------------
   No.  Atomic          a             b             c           Radius
        Label          (eV)          (eV)          (eV)        (eV/Angs)
--------------------------------------------------------------------------------
      1 Tb    c       0.000000      0.000000      0.000000      0.000000
      2 Ba    c       0.000000      0.000000      0.000000      0.000000
      3 O     c       0.000000      0.000000      0.000000      0.000000
      4 O     s       0.000000      0.000000      0.000000      0.000000
--------------------------------------------------------------------------------
  Maximum abs         0.000000      0.000000      0.000000      0.000000
--------------------------------------------------------------------------------


  Born effective charge tensors : 

-------------------------------------------------------------------------------
  Atom             x           y             z
-------------------------------------------------------------------------------
   1 Tb    x       0.2119     -0.0376      0.0000
           y       0.0376      0.2119      0.0000
           z       0.0000      0.0000      0.1935
-------------------------------------------------------------------------------
   2 Ba    x       2.9281      0.0000      0.0000
           y       0.0000      2.9281      0.0000
           z       0.0000      0.0000      2.9467
-------------------------------------------------------------------------------
   3 O     x      -1.2839      0.0000      0.0000
           y       0.0000     -0.8095      0.3584
           z       0.0000      0.3494     -1.0468
-------------------------------------------------------------------------------




  Elastic Constant Matrix: (Units=GPa)

-------------------------------------------------------------------------------
  Indices      1         2         3         4         5         6    
-------------------------------------------------------------------------------
       1    131.3287   39.0773   84.8916  -64.7984    0.0000    0.0000
       2     39.0773  131.3287   84.8916   64.7984    0.0000    0.0000
       3     84.8916   84.8916   70.5917    0.0000    0.0000    0.0000
       4    -64.7984   64.7984    0.0000   87.2764    0.0000    0.0000
       5      0.0000    0.0000    0.0000    0.0000   87.2764  -64.7984
       6      0.0000    0.0000    0.0000    0.0000  -64.7984   46.1257
-------------------------------------------------------------------------------


  Elastic Compliance Matrix: (Units=1/GPa)

-------------------------------------------------------------------------------
  Indices      1         2         3         4         5         6    
-------------------------------------------------------------------------------
       1   -0.140820  0.111209  0.035610 -0.187119  0.000000  0.000000
       2    0.111209 -0.140820  0.035610  0.187119  0.000000  0.000000
       3    0.035610  0.035610 -0.071481  0.000000  0.000000  0.000000
       4   -0.187119  0.187119  0.000000 -0.266395  0.000000  0.000000
       5    0.000000  0.000000  0.000000  0.000000 -0.266395 -0.374238
       6    0.000000  0.000000  0.000000  0.000000 -0.374238 -0.504058
-------------------------------------------------------------------------------

  Mechanical properties :

-------------------------------------------------------------------------------
  Convention :                    Reuss         Voigt         Hill
-------------------------------------------------------------------------------
  Bulk  Modulus (GPa)     =      85.20994      83.44114      84.32554
  Shear Modulus (GPa)     =      -2.85565      52.42829      24.78632
-------------------------------------------------------------------------------
  Velocity S-wave (km/s)  =      -0.57102       2.44672       1.68231
  Velocity P-wave (km/s)  =       3.04873       4.18443       3.66089
-------------------------------------------------------------------------------
  Compressibility (1/GPa) =    0.01173572
-------------------------------------------------------------------------------
  Stress axis :                     x             y             z
-------------------------------------------------------------------------------
  Youngs Moduli (GPa)     =      -7.10125      -7.10125     -13.98975
-------------------------------------------------------------------------------
  Poissons Ratio (x)      =                     0.78972       0.49817
  Poissons Ratio (y)      =       0.78972                     0.49817
  Poissons Ratio (z)      =       0.25287       0.25287
-------------------------------------------------------------------------------


  Piezoelectric Strain Matrix: (Units=C/m**2)

-------------------------------------------------------------------------------
  Indices      1         2         3         4         5         6    
-------------------------------------------------------------------------------
       x     0.00000   0.00000   0.00000   0.00000   0.00000   0.00000
       y     0.00000   0.00000   0.00000   0.00000   0.00000   0.00000
       z     0.00000   0.00000   0.00000   0.00000   0.00000   0.00000
-------------------------------------------------------------------------------


  Piezoelectric Stress Matrix: (Units=10**-11 C/N)

-------------------------------------------------------------------------------
  Indices      1         2         3         4         5         6    
-------------------------------------------------------------------------------
       x     0.00000   0.00000   0.00000   0.00000   0.00000   0.00000
       y     0.00000   0.00000   0.00000   0.00000   0.00000   0.00000
       z     0.00000   0.00000   0.00000   0.00000   0.00000   0.00000
-------------------------------------------------------------------------------


  Static dielectric constant tensor : 

-------------------------------------------------------------------------------
              x         y         z
-------------------------------------------------------------------------------
       x    -3.26830   0.00000   0.00000
       y     0.00000  -3.26830   0.00000
       z     0.00000   0.00000  -2.58956
--------------------------------------------------------------------------------

  High frequency dielectric constant tensor : 

-------------------------------------------------------------------------------
              x         y         z
-------------------------------------------------------------------------------
       x     1.67467   0.00000   0.00000
       y     0.00000   1.67467   0.00000
       z     0.00000   0.00000   1.67406
-------------------------------------------------------------------------------

  Static refractive indices : 

-------------------------------------------------------------------------------
    1 =   -1.80784      2 =   -1.80784      3 =   -1.60921
-------------------------------------------------------------------------------

  High frequency refractive indices : 

-------------------------------------------------------------------------------
    1 =    1.29385      2 =    1.29409      3 =    1.29409
-------------------------------------------------------------------------------


  Time to end of optimisation =       0.4239 seconds


  Peak dynamic memory used =       0.57 MB 


  Timing analysis for GULP :

--------------------------------------------------------------------------------
  Task / Subroutine                                          Time (Seconds)
--------------------------------------------------------------------------------
  Calculation of reciprocal space energy and derivatives          0.0032
  Calculation of reciprocal space energy using symmetry           0.0150
  Calculation of real space energy and derivatives                0.0104
  Calculation of real space energy using symmetry                 0.3893
  Symmetry generation of equivalent positions                     0.0006
  Global summation overhead                                       0.0001
--------------------------------------------------------------------------------
  Total CPU time                                                  0.4239
--------------------------------------------------------------------------------


  CIF file written as perov.cif                                               


  Job Finished at 09:26.35  6th April      2017                               

