********************************************************************************
*                       GENERAL UTILITY LATTICE PROGRAM                        *
*                                 Julian Gale                                  *
*                      Nanochemistry Research Institute                        *
*                           Department of Chemistry                            *
*                    Curtin University, Western Australia                      *
********************************************************************************
* Version = 4.3.2 * Last modified =  3rd March 2015                            *
********************************************************************************
*  optimise     - perform optimisation run                                     *
*  cell_only    - only optimise unit cell                                      *
*  property     - calculate properties for final geometry                      *
********************************************************************************

  Job Started  at 09:26.38  6th April      2017                               

  Number of CPUs =     1


  Total number of configurations input =   1

********************************************************************************
*  Input for Configuration =   1                                               *
********************************************************************************

  Formula = Tb2Ba2O6                                                    

  Number of irreducible atoms/shells =       4


  Total number atoms/shells =      16

  Dimensionality = 3               :  Bulk   


  Symmetry :

  Crystal family                   :  Hexagonal   
  Crystal class  (Groth - 1921)    :  Ditrigonal Scalenohedral             

  Space group (centrosymmetric)    :  R -3 C          

  Patterson group                  :  R -3 m   

  Cartesian lattice vectors (Angstroms) :

        3.039900    1.755087    4.922700
       -3.039900    1.755087    4.922700
        0.000000   -3.510174    4.922700

  Primitive cell parameters :            Full cell parameters :

  a =   6.0460    alpha =  60.3700       a =   6.0798    alpha =  90.0000
  b =   6.0460    beta  =  60.3700       b =   6.0798    beta  =  90.0000
  c =   6.0460    gamma =  60.3700       c =  14.7681    gamma = 120.0000

  Initial volumes (Angstroms**3):

  Primitive cell =         157.584170    Full cell =         472.752509

  Temperature of configuration =  0.000     K 

  Pressure of configuration =         0.000 GPa 

  Fractional coordinates of asymmetric unit :

--------------------------------------------------------------------------------
   No.  Atomic       x           y          z         Charge      Occupancy
        Label      (Frac)      (Frac)     (Frac)        (e)         (Frac)  
--------------------------------------------------------------------------------
      1 Tb    c    0.000000    0.000000    0.000000     1.30000    1.000000    
      2 Ba    c    0.000000    0.000000    0.250000     1.60000    1.000000    
      3 O     c    0.462400    0.000000    0.250000     0.37800    1.000000    
      4 O     s    0.462400    0.000000    0.250000    -1.34467    1.000000    
--------------------------------------------------------------------------------


  Constraints : 

--------------------------------------------------------------------------------
  Constraint no.      Unconstrained     Constrained    Coefficient    Offset
                         Variable         Variable
--------------------------------------------------------------------------------
           1              Strain 1        Strain 2       1.00000      0.0000
--------------------------------------------------------------------------------


********************************************************************************
*  General input information                                                   *
********************************************************************************

  Species output for all configurations : 

--------------------------------------------------------------------------------
  Species    Type    Atomic    Atomic    Charge       Radii (Angs)     Library
                     Number     Mass       (e)     Cova   Ionic  VDW   Symbol
--------------------------------------------------------------------------------
    Tb       Core       65     158.93   1.300000   1.760  0.000  2.630          
    Ba       Core       56     137.33   1.600000   1.340  0.000  2.000          
    O        Core        8      16.00   0.378000   0.730  0.000  1.360          
    O        Shell       8       0.00  -1.344667   0.730  0.000  1.360          
--------------------------------------------------------------------------------


  Lattice summation method               =    Ewald          (3-D)
                                         =    Parry          (2-D)
                                         =    Saunders et al (1-D)
  Accuracy factor for lattice sums       =   12.000


  Time limit = Infinity

  Maximum range for interatomic potentials =    100000.000000 Angstroms

  General interatomic potentials :

--------------------------------------------------------------------------------
Atom  Types   Potential         A         B         C         D     Cutoffs(Ang)
  1     2                                                            Min    Max 
--------------------------------------------------------------------------------
Ba   c Ba   c Buckingham    0.219E+04 0.192      0.00      0.00     0.000 10.000
Tb   c O    s Buckingham    0.148E+04 0.266      0.00      0.00     0.000 10.000
O    s O    s Buckingham     912.     0.271      13.8      0.00     0.000 10.000
Ba   c O    s Buckingham    0.352E+04 0.267      0.00      0.00     0.000 10.000
O    c O    s Spring (c-s)   23.2      0.00      0.00      0.00     0.000  0.800
--------------------------------------------------------------------------------

********************************************************************************
*  Output for configuration   1                                                *
********************************************************************************


  Components of energy : 

--------------------------------------------------------------------------------
  Interatomic potentials     =           6.38527986 eV
  Monopole - monopole (real) =         -22.16118855 eV
  Monopole - monopole (recip)=         -46.79335342 eV
  Monopole - monopole (total)=         -68.95454198 eV
--------------------------------------------------------------------------------
  Total lattice energy : 
    Primitive unit cell      =         -62.56926211 eV
    Non-primitive unit cell  =        -187.70778634 eV
--------------------------------------------------------------------------------
  Total lattice energy (in kJmol-1): 
    Primitive unit cell      =           -6036.9773 kJ/(mole unit cells)
    Non-primitive unit cell  =          -18110.9320 kJ/(mole unit cells)
--------------------------------------------------------------------------------


  Number of variables =        2

  Maximum number of calculations  =          1000
  Maximum Hessian update interval =            10
  Maximum step size               =   1.000000000
  Maximum parameter tolerance     =   0.000010000
  Maximum function  tolerance     =   0.000010000
  Maximum gradient  tolerance     =   0.001000000
  Maximum gradient  component     =   0.010000000

  Symmetry constrained optimisation

  Symmetry used for second derivatives

  Cell parameters to be optimised using strains

  Newton-Raphson optimiser to be used

  BFGS hessian update to be used

  Start of bulk optimisation :

  Cycle:      0 Energy:       -62.569262  Gnorm:      4.475609  CPU:    0.007
  ** Hessian calculated **
  Cycle:      1 Energy:       -62.735812  Gnorm:      0.404404  CPU:    0.016
  Cycle:      2 Energy:       -62.736817  Gnorm:      0.049929  CPU:    0.024
  Cycle:      3 Energy:       -62.737001  Gnorm:      0.000887  CPU:    0.032


  **** Optimisation achieved ****


  Final energy =     -62.73700137 eV
  Final Gnorm  =       0.00001768

  Components of energy : 

--------------------------------------------------------------------------------
  Interatomic potentials     =           8.12440769 eV
  Monopole - monopole (real) =         -22.77685237 eV
  Monopole - monopole (recip)=         -48.08455669 eV
  Monopole - monopole (total)=         -70.86140906 eV
--------------------------------------------------------------------------------
  Total lattice energy : 
    Primitive unit cell      =         -62.73700137 eV
    Non-primitive unit cell  =        -188.21100410 eV
--------------------------------------------------------------------------------
  Total lattice energy (in kJmol-1): 
    Primitive unit cell      =           -6053.1616 kJ/(mole unit cells)
    Non-primitive unit cell  =          -18159.4848 kJ/(mole unit cells)
--------------------------------------------------------------------------------

  Final asymmetric unit coordinates :

--------------------------------------------------------------------------------
   No.  Atomic        x           y           z         Radius
        Label       (Frac)      (Frac)      (Frac)       (Angs) 
--------------------------------------------------------------------------------
     1  Tb    c     0.000000    0.000000    0.000000    0.000000
     2  Ba    c     0.000000    0.000000    0.250000    0.000000
     3  O     c     0.462400    0.000000    0.250000    0.000000
     4  O     s     0.462400    0.000000    0.250000    0.000000
--------------------------------------------------------------------------------

  Final Cartesian lattice vectors (Angstroms) :

        2.954393    1.705719    4.803137
       -2.954393    1.705719    4.803137
        0.000000   -3.411439    4.803137


  Final cell parameters and derivatives :

--------------------------------------------------------------------------------
       a            5.891353 Angstrom     dE/de1(xx)    -0.000035 eV/strain
       b            5.891353 Angstrom     dE/de2(yy)     0.000000 eV/strain
       c            5.891353 Angstrom     dE/de3(zz)     0.000004 eV/strain
       alpha       60.195862 Degrees      dE/de4(yz)     0.000000 eV/strain
       beta        60.195862 Degrees      dE/de5(xz)     0.000000 eV/strain
       gamma       60.195862 Degrees      dE/de6(xy)     0.000000 eV/strain
--------------------------------------------------------------------------------

  Primitive cell volume =           145.228580 Angs**3

  Density of cell =      7.872641 g/cm**3

  Non-primitive lattice parameters :

  a    =     5.908786  b   =     5.908786  c    =    14.409411
  alpha=    90.000000  beta=    90.000000  gamma=   120.000000

  Non-primitive cell volume =           435.685740 Angs**3


  Final internal derivatives :

--------------------------------------------------------------------------------
   No.  Atomic          a             b             c           Radius
        Label          (eV)          (eV)          (eV)        (eV/Angs)
--------------------------------------------------------------------------------
      1 Tb    c       0.000000      0.000000      0.000000      0.000000
      2 Ba    c       0.000000      0.000000      0.000000      0.000000
      3 O     c       0.000000      0.000000      0.000000      0.000000
      4 O     s       0.000000      0.000000      0.000000      0.000000
--------------------------------------------------------------------------------
  Maximum abs         0.000000      0.000000      0.000000      0.000000
--------------------------------------------------------------------------------


  Born effective charge tensors : 

-------------------------------------------------------------------------------
  Atom             x           y             z
-------------------------------------------------------------------------------
   1 Tb    x       0.8830     -0.0008      0.0000
           y       0.0008      0.8830      0.0000
           z       0.0000      0.0000      0.8857
-------------------------------------------------------------------------------
   2 Ba    x       1.7447      0.0000      0.0000
           y       0.0000      1.7447      0.0000
           z       0.0000      0.0000      1.7757
-------------------------------------------------------------------------------
   3 O     x      -0.9564      0.0000      0.0000
           y       0.0000     -0.7954      0.1293
           z       0.0000      0.1296     -0.8871
-------------------------------------------------------------------------------




  Elastic Constant Matrix: (Units=GPa)

-------------------------------------------------------------------------------
  Indices      1         2         3         4         5         6    
-------------------------------------------------------------------------------
       1     86.1908   51.9096   43.0449   -6.5609    0.0000    0.0000
       2     51.9096   86.1908   43.0449    6.5609    0.0000    0.0000
       3     43.0449   43.0449   84.7239    0.0000    0.0000    0.0000
       4     -6.5609    6.5609    0.0000   38.0071    0.0000    0.0000
       5      0.0000    0.0000    0.0000    0.0000   38.0071   -6.5609
       6      0.0000    0.0000    0.0000    0.0000   -6.5609   17.1406
-------------------------------------------------------------------------------


  Elastic Compliance Matrix: (Units=1/GPa)

-------------------------------------------------------------------------------
  Indices      1         2         3         4         5         6    
-------------------------------------------------------------------------------
       1    0.020916 -0.010318 -0.005384  0.005392  0.000000  0.000000
       2   -0.010318  0.020916 -0.005384 -0.005392  0.000000  0.000000
       3   -0.005384 -0.005384  0.017274  0.000000  0.000000  0.000000
       4    0.005392 -0.005392  0.000000  0.028172  0.000000  0.000000
       5    0.000000  0.000000  0.000000  0.000000  0.028172  0.010784
       6    0.000000  0.000000  0.000000  0.000000  0.010784  0.062469
-------------------------------------------------------------------------------

  Mechanical properties :

-------------------------------------------------------------------------------
  Convention :                    Reuss         Voigt         Hill
-------------------------------------------------------------------------------
  Bulk  Modulus (GPa)     =      59.05859      59.23382      59.14621
  Shear Modulus (GPa)     =      22.14969      26.57138      24.36053
-------------------------------------------------------------------------------
  Velocity S-wave (km/s)  =       1.67735       1.83716       1.75907
  Velocity P-wave (km/s)  =       3.35456       3.46759       3.41155
-------------------------------------------------------------------------------
  Compressibility (1/GPa) =    0.01693234
-------------------------------------------------------------------------------
  Stress axis :                     x             y             z
-------------------------------------------------------------------------------
  Youngs Moduli (GPa)     =      47.81048      47.81048      57.89027
-------------------------------------------------------------------------------
  Poissons Ratio (x)      =                     0.49333       0.31169
  Poissons Ratio (y)      =       0.49333                     0.31169
  Poissons Ratio (z)      =       0.25742       0.25742
-------------------------------------------------------------------------------


  Piezoelectric Strain Matrix: (Units=C/m**2)

-------------------------------------------------------------------------------
  Indices      1         2         3         4         5         6    
-------------------------------------------------------------------------------
       x     0.00000   0.00000   0.00000   0.00000   0.00000   0.00000
       y     0.00000   0.00000   0.00000   0.00000   0.00000   0.00000
       z     0.00000   0.00000   0.00000   0.00000   0.00000   0.00000
-------------------------------------------------------------------------------


  Piezoelectric Stress Matrix: (Units=10**-11 C/N)

-------------------------------------------------------------------------------
  Indices      1         2         3         4         5         6    
-------------------------------------------------------------------------------
       x     0.00000   0.00000   0.00000   0.00000   0.00000   0.00000
       y     0.00000   0.00000   0.00000   0.00000   0.00000   0.00000
       z     0.00000   0.00000   0.00000   0.00000   0.00000   0.00000
-------------------------------------------------------------------------------


  Static dielectric constant tensor : 

-------------------------------------------------------------------------------
              x         y         z
-------------------------------------------------------------------------------
       x    42.21174   0.00000   0.00000
       y     0.00000  42.21174   0.00000
       z     0.00000   0.00000 -11.31822
--------------------------------------------------------------------------------

  High frequency dielectric constant tensor : 

-------------------------------------------------------------------------------
              x         y         z
-------------------------------------------------------------------------------
       x     1.57395   0.00000   0.00000
       y     0.00000   1.57395   0.00000
       z     0.00000   0.00000   1.57983
-------------------------------------------------------------------------------

  Static refractive indices : 

-------------------------------------------------------------------------------
    1 =   -3.36426      2 =    6.49706      3 =    6.49706
-------------------------------------------------------------------------------

  High frequency refractive indices : 

-------------------------------------------------------------------------------
    1 =    1.25457      2 =    1.25457      3 =    1.25691
-------------------------------------------------------------------------------


  Time to end of optimisation =       0.0526 seconds


  Peak dynamic memory used =       0.57 MB 


  Timing analysis for GULP :

--------------------------------------------------------------------------------
  Task / Subroutine                                          Time (Seconds)
--------------------------------------------------------------------------------
  Calculation of reciprocal space energy and derivatives          0.0010
  Calculation of reciprocal space energy using symmetry           0.0015
  Calculation of real space energy and derivatives                0.0101
  Calculation of real space energy using symmetry                 0.0364
  Symmetry generation of equivalent positions                     0.0003
--------------------------------------------------------------------------------
  Total CPU time                                                  0.0526
--------------------------------------------------------------------------------


  CIF file written as perov.cif                                               


  Job Finished at 09:26.38  6th April      2017                               

