********************************************************************************
*                       GENERAL UTILITY LATTICE PROGRAM                        *
*                                 Julian Gale                                  *
*                      Nanochemistry Research Institute                        *
*                           Department of Chemistry                            *
*                    Curtin University, Western Australia                      *
********************************************************************************
* Version = 4.3.2 * Last modified =  3rd March 2015                            *
********************************************************************************
*  optimise     - perform optimisation run                                     *
*  cell_only    - only optimise unit cell                                      *
*  property     - calculate properties for final geometry                      *
********************************************************************************

  Job Started  at 09:26.31  6th April      2017                               

  Number of CPUs =     1


  Total number of configurations input =   1

********************************************************************************
*  Input for Configuration =   1                                               *
********************************************************************************

  Formula = Tb2Ba2O6                                                    

  Number of irreducible atoms/shells =       4


  Total number atoms/shells =      16

  Dimensionality = 3               :  Bulk   


  Symmetry :

  Crystal family                   :  Hexagonal   
  Crystal class  (Groth - 1921)    :  Ditrigonal Scalenohedral             

  Space group (centrosymmetric)    :  R -3 C          

  Patterson group                  :  R -3 m   

  Cartesian lattice vectors (Angstroms) :

        3.039900    1.755087    4.922700
       -3.039900    1.755087    4.922700
        0.000000   -3.510174    4.922700

  Primitive cell parameters :            Full cell parameters :

  a =   6.0460    alpha =  60.3700       a =   6.0798    alpha =  90.0000
  b =   6.0460    beta  =  60.3700       b =   6.0798    beta  =  90.0000
  c =   6.0460    gamma =  60.3700       c =  14.7681    gamma = 120.0000

  Initial volumes (Angstroms**3):

  Primitive cell =         157.584170    Full cell =         472.752509

  Temperature of configuration =  0.000     K 

  Pressure of configuration =         0.000 GPa 

  Fractional coordinates of asymmetric unit :

--------------------------------------------------------------------------------
   No.  Atomic       x           y          z         Charge      Occupancy
        Label      (Frac)      (Frac)     (Frac)        (e)         (Frac)  
--------------------------------------------------------------------------------
      1 Tb    c    0.000000    0.000000    0.000000     0.60000    1.000000    
      2 Ba    c    0.000000    0.000000    0.250000     1.50000    1.000000    
      3 O     c    0.462400    0.000000    0.250000     0.37800    1.000000    
      4 O     s    0.462400    0.000000    0.250000    -1.07800    1.000000    
--------------------------------------------------------------------------------


  Constraints : 

--------------------------------------------------------------------------------
  Constraint no.      Unconstrained     Constrained    Coefficient    Offset
                         Variable         Variable
--------------------------------------------------------------------------------
           1              Strain 1        Strain 2       1.00000      0.0000
--------------------------------------------------------------------------------


********************************************************************************
*  General input information                                                   *
********************************************************************************

  Species output for all configurations : 

--------------------------------------------------------------------------------
  Species    Type    Atomic    Atomic    Charge       Radii (Angs)     Library
                     Number     Mass       (e)     Cova   Ionic  VDW   Symbol
--------------------------------------------------------------------------------
    Tb       Core       65     158.93   0.600000   1.760  0.000  2.630          
    Ba       Core       56     137.33   1.500000   1.340  0.000  2.000          
    O        Core        8      16.00   0.378000   0.730  0.000  1.360          
    O        Shell       8       0.00  -1.078000   0.730  0.000  1.360          
--------------------------------------------------------------------------------


  Lattice summation method               =    Ewald          (3-D)
                                         =    Parry          (2-D)
                                         =    Saunders et al (1-D)
  Accuracy factor for lattice sums       =   12.000


  Time limit = Infinity

  Maximum range for interatomic potentials =    100000.000000 Angstroms

  General interatomic potentials :

--------------------------------------------------------------------------------
Atom  Types   Potential         A         B         C         D     Cutoffs(Ang)
  1     2                                                            Min    Max 
--------------------------------------------------------------------------------
Ba   c Ba   c Buckingham    0.219E+04 0.192      0.00      0.00     0.000 10.000
Tb   c O    s Buckingham    0.148E+04 0.266      0.00      0.00     0.000 10.000
O    s O    s Buckingham     912.     0.271      13.8      0.00     0.000 10.000
Ba   c O    s Buckingham    0.352E+04 0.267      0.00      0.00     0.000 10.000
O    c O    s Spring (c-s)   14.9      0.00      0.00      0.00     0.000  0.800
--------------------------------------------------------------------------------

********************************************************************************
*  Output for configuration   1                                                *
********************************************************************************


  Components of energy : 

--------------------------------------------------------------------------------
  Interatomic potentials     =           6.38527986 eV
  Monopole - monopole (real) =          -9.91558752 eV
  Monopole - monopole (recip)=         -26.63825642 eV
  Monopole - monopole (total)=         -36.55384393 eV
--------------------------------------------------------------------------------
  Total lattice energy : 
    Primitive unit cell      =         -30.16856407 eV
    Non-primitive unit cell  =         -90.50569221 eV
--------------------------------------------------------------------------------
  Total lattice energy (in kJmol-1): 
    Primitive unit cell      =           -2910.8053 kJ/(mole unit cells)
    Non-primitive unit cell  =           -8732.4158 kJ/(mole unit cells)
--------------------------------------------------------------------------------


  Number of variables =        2

  Maximum number of calculations  =          1000
  Maximum Hessian update interval =            10
  Maximum step size               =   1.000000000
  Maximum parameter tolerance     =   0.000010000
  Maximum function  tolerance     =   0.000010000
  Maximum gradient  tolerance     =   0.001000000
  Maximum gradient  component     =   0.010000000

  Symmetry constrained optimisation

  Symmetry used for second derivatives

  Cell parameters to be optimised using strains

  Newton-Raphson optimiser to be used

  BFGS hessian update to be used

  Start of bulk optimisation :

  Cycle:      0 Energy:       -30.168564  Gnorm:      7.737564  CPU:    0.007
  ** Hessian calculated **
  Cycle:      1 Energy:       -30.745717  Gnorm:      0.454331  CPU:    0.017
  ** Hessian calculated **
  Cycle:      2 Energy:       -30.749463  Gnorm:      0.009580  CPU:    0.030
  Cycle:      3 Energy:       -30.749490  Gnorm:      0.004227  CPU:    0.038
  Cycle:      4 Energy:       -30.749492  Gnorm:      0.002118  CPU:    0.048
  Cycle:      5 Energy:       -30.749492  Gnorm:      0.002118  CPU:    0.062
  ** Hessian calculated **
  Cycle:      6 Energy:       -30.749492  Gnorm:      0.002118  CPU:    0.077
  ** Hessian calculated **


  **** Conditions for a minimum have not been satisfied. However ****
  **** no lower point can be found - treat results with caution  ****
  **** unless gradient norm is small (less than 0.1)             ****


  Final energy =     -30.74949221 eV
  Final Gnorm  =       0.00211794

  Components of energy : 

--------------------------------------------------------------------------------
  Interatomic potentials     =           3.61978934 eV
  Monopole - monopole (real) =          -9.31904324 eV
  Monopole - monopole (recip)=         -25.05023831 eV
  Monopole - monopole (total)=         -34.36928155 eV
--------------------------------------------------------------------------------
  Total lattice energy : 
    Primitive unit cell      =         -30.74949221 eV
    Non-primitive unit cell  =         -92.24847664 eV
--------------------------------------------------------------------------------
  Total lattice energy (in kJmol-1): 
    Primitive unit cell      =           -2966.8559 kJ/(mole unit cells)
    Non-primitive unit cell  =           -8900.5678 kJ/(mole unit cells)
--------------------------------------------------------------------------------

  Final asymmetric unit coordinates :

--------------------------------------------------------------------------------
   No.  Atomic        x           y           z         Radius
        Label       (Frac)      (Frac)      (Frac)       (Angs) 
--------------------------------------------------------------------------------
     1  Tb    c     0.000000    0.000000    0.000000    0.000000
     2  Ba    c     0.000000    0.000000    0.250000    0.000000
     3  O     c     0.462400    0.000000    0.250000    0.000000
     4  O     s     0.462400    0.000000    0.250000    0.000000
--------------------------------------------------------------------------------

  Final Cartesian lattice vectors (Angstroms) :

        3.243295    1.872517    5.200317
       -3.243295    1.872517    5.200317
        0.000000   -3.745035    5.200317


  Final cell parameters and derivatives :

--------------------------------------------------------------------------------
       a            6.408477 Angstrom     dE/de1(xx)     0.004200 eV/strain
       b            6.408477 Angstrom     dE/de2(yy)     0.000000 eV/strain
       c            6.408477 Angstrom     dE/de3(zz)     0.000552 eV/strain
       alpha       60.808077 Degrees      dE/de4(yz)     0.000000 eV/strain
       beta        60.808077 Degrees      dE/de5(xz)     0.000000 eV/strain
       gamma       60.808077 Degrees      dE/de6(xy)     0.000000 eV/strain
--------------------------------------------------------------------------------

  Primitive cell volume =           189.493114 Angs**3

  Density of cell =      6.033636 g/cm**3

  Non-primitive lattice parameters :

  a    =     6.486591  b   =     6.486591  c    =    15.600950
  alpha=    90.000000  beta=    90.000000  gamma=   120.000000

  Non-primitive cell volume =           568.479342 Angs**3


  Final internal derivatives :

--------------------------------------------------------------------------------
   No.  Atomic          a             b             c           Radius
        Label          (eV)          (eV)          (eV)        (eV/Angs)
--------------------------------------------------------------------------------
      1 Tb    c       0.000000      0.000000      0.000000      0.000000
      2 Ba    c       0.000000      0.000000      0.000000      0.000000
      3 O     c       0.000000      0.000000      0.000000      0.000000
      4 O     s       0.000000      0.000000      0.000000      0.000000
--------------------------------------------------------------------------------
  Maximum abs         0.000000      0.000000      0.000000      0.000000
--------------------------------------------------------------------------------


  Born effective charge tensors : 

-------------------------------------------------------------------------------
  Atom             x           y             z
-------------------------------------------------------------------------------
   1 Tb    x       0.3087     -0.0093      0.0000
           y       0.0093      0.3087      0.0000
           z       0.0000      0.0000      0.3247
-------------------------------------------------------------------------------
   2 Ba    x       1.6733      0.0000      0.0000
           y       0.0000      1.6733      0.0000
           z       0.0000      0.0000      1.6880
-------------------------------------------------------------------------------
   3 O     x      -0.7772      0.0000      0.0000
           y       0.0000     -0.5441      0.1733
           z       0.0000      0.1766     -0.6709
-------------------------------------------------------------------------------




  Elastic Constant Matrix: (Units=GPa)

-------------------------------------------------------------------------------
  Indices      1         2         3         4         5         6    
-------------------------------------------------------------------------------
       1     39.2297   12.4936   23.1634  -16.7750    0.0000    0.0000
       2     12.4936   39.2297   23.1634   16.7750    0.0000    0.0000
       3     23.1634   23.1634   23.5247    0.0000    0.0000    0.0000
       4    -16.7750   16.7750    0.0000   23.5678    0.0000    0.0000
       5      0.0000    0.0000    0.0000    0.0000   23.5678  -16.7750
       6      0.0000    0.0000    0.0000    0.0000  -16.7750   13.3680
-------------------------------------------------------------------------------


  Elastic Compliance Matrix: (Units=1/GPa)

-------------------------------------------------------------------------------
  Indices      1         2         3         4         5         6    
-------------------------------------------------------------------------------
       1    0.256938 -0.093221 -0.161202  0.249236  0.000000  0.000000
       2   -0.093221  0.256938 -0.161202 -0.249236  0.000000  0.000000
       3   -0.161202 -0.161202  0.359961  0.000000  0.000000  0.000000
       4    0.249236 -0.249236  0.000000  0.397232  0.000000  0.000000
       5    0.000000  0.000000  0.000000  0.000000  0.397232  0.498472
       6    0.000000  0.000000  0.000000  0.000000  0.498472  0.700318
-------------------------------------------------------------------------------

  Mechanical properties :

-------------------------------------------------------------------------------
  Convention :                    Reuss         Voigt         Hill
-------------------------------------------------------------------------------
  Bulk  Modulus (GPa)     =      23.48203      24.40275      23.94239
  Shear Modulus (GPa)     =       1.55566      14.97830       8.26698
-------------------------------------------------------------------------------
  Velocity S-wave (km/s)  =       0.50777       1.57558       1.17053
  Velocity P-wave (km/s)  =       2.05806       2.71190       2.40728
-------------------------------------------------------------------------------
  Compressibility (1/GPa) =    0.04258576
-------------------------------------------------------------------------------
  Stress axis :                     x             y             z
-------------------------------------------------------------------------------
  Youngs Moduli (GPa)     =       3.89199       3.89199       2.77808
-------------------------------------------------------------------------------
  Poissons Ratio (x)      =                     0.36282       0.44783
  Poissons Ratio (y)      =       0.36282                     0.44783
  Poissons Ratio (z)      =       0.62740       0.62740
-------------------------------------------------------------------------------


  Piezoelectric Strain Matrix: (Units=C/m**2)

-------------------------------------------------------------------------------
  Indices      1         2         3         4         5         6    
-------------------------------------------------------------------------------
       x     0.00000   0.00000   0.00000   0.00000   0.00000   0.00000
       y     0.00000   0.00000   0.00000   0.00000   0.00000   0.00000
       z     0.00000   0.00000   0.00000   0.00000   0.00000   0.00000
-------------------------------------------------------------------------------


  Piezoelectric Stress Matrix: (Units=10**-11 C/N)

-------------------------------------------------------------------------------
  Indices      1         2         3         4         5         6    
-------------------------------------------------------------------------------
       x     0.00000   0.00000   0.00000   0.00000   0.00000   0.00000
       y     0.00000   0.00000   0.00000   0.00000   0.00000   0.00000
       z     0.00000   0.00000   0.00000   0.00000   0.00000   0.00000
-------------------------------------------------------------------------------


  Static dielectric constant tensor : 

-------------------------------------------------------------------------------
              x         y         z
-------------------------------------------------------------------------------
       x    -3.51525   0.00000   0.00000
       y     0.00000  -3.51525   0.00000
       z     0.00000   0.00000  -2.41442
--------------------------------------------------------------------------------

  High frequency dielectric constant tensor : 

-------------------------------------------------------------------------------
              x         y         z
-------------------------------------------------------------------------------
       x     1.45255   0.00000   0.00000
       y     0.00000   1.45255   0.00000
       z     0.00000   0.00000   1.45797
-------------------------------------------------------------------------------

  Static refractive indices : 

-------------------------------------------------------------------------------
    1 =   -1.87490      2 =   -1.87490      3 =   -1.55384
-------------------------------------------------------------------------------

  High frequency refractive indices : 

-------------------------------------------------------------------------------
    1 =    1.20522      2 =    1.20522      3 =    1.20746
-------------------------------------------------------------------------------


  Time to end of optimisation =       0.1041 seconds


  Peak dynamic memory used =       0.57 MB 


  Timing analysis for GULP :

--------------------------------------------------------------------------------
  Task / Subroutine                                          Time (Seconds)
--------------------------------------------------------------------------------
  Calculation of reciprocal space energy and derivatives          0.0012
  Calculation of reciprocal space energy using symmetry           0.0035
  Calculation of real space energy and derivatives                0.0099
  Calculation of real space energy using symmetry                 0.0858
  Symmetry generation of equivalent positions                     0.0003
--------------------------------------------------------------------------------
  Total CPU time                                                  0.1042
--------------------------------------------------------------------------------


  CIF file written as perov.cif                                               


  Job Finished at 09:26.31  6th April      2017                               

