********************************************************************************
*                       GENERAL UTILITY LATTICE PROGRAM                        *
*                                 Julian Gale                                  *
*                      Nanochemistry Research Institute                        *
*                           Department of Chemistry                            *
*                    Curtin University, Western Australia                      *
********************************************************************************
* Version = 4.3.2 * Last modified =  3rd March 2015                            *
********************************************************************************
*  optimise     - perform optimisation run                                     *
*  cell_only    - only optimise unit cell                                      *
*  property     - calculate properties for final geometry                      *
********************************************************************************

  Job Started  at 09:26.33  6th April      2017                               

  Number of CPUs =     1


  Total number of configurations input =   1

********************************************************************************
*  Input for Configuration =   1                                               *
********************************************************************************

  Formula = Tb2Ba2O6                                                    

  Number of irreducible atoms/shells =       4


  Total number atoms/shells =      16

  Dimensionality = 3               :  Bulk   


  Symmetry :

  Crystal family                   :  Hexagonal   
  Crystal class  (Groth - 1921)    :  Ditrigonal Scalenohedral             

  Space group (centrosymmetric)    :  R -3 C          

  Patterson group                  :  R -3 m   

  Cartesian lattice vectors (Angstroms) :

        3.039900    1.755087    4.922700
       -3.039900    1.755087    4.922700
        0.000000   -3.510174    4.922700

  Primitive cell parameters :            Full cell parameters :

  a =   6.0460    alpha =  60.3700       a =   6.0798    alpha =  90.0000
  b =   6.0460    beta  =  60.3700       b =   6.0798    beta  =  90.0000
  c =   6.0460    gamma =  60.3700       c =  14.7681    gamma = 120.0000

  Initial volumes (Angstroms**3):

  Primitive cell =         157.584170    Full cell =         472.752509

  Temperature of configuration =  0.000     K 

  Pressure of configuration =         0.000 GPa 

  Fractional coordinates of asymmetric unit :

--------------------------------------------------------------------------------
   No.  Atomic       x           y          z         Charge      Occupancy
        Label      (Frac)      (Frac)     (Frac)        (e)         (Frac)  
--------------------------------------------------------------------------------
      1 Tb    c    0.000000    0.000000    0.000000     0.60000    1.000000    
      2 Ba    c    0.000000    0.000000    0.250000     2.30000    1.000000    
      3 O     c    0.462400    0.000000    0.250000     0.37800    1.000000    
      4 O     s    0.462400    0.000000    0.250000    -1.34467    1.000000    
--------------------------------------------------------------------------------


  Constraints : 

--------------------------------------------------------------------------------
  Constraint no.      Unconstrained     Constrained    Coefficient    Offset
                         Variable         Variable
--------------------------------------------------------------------------------
           1              Strain 1        Strain 2       1.00000      0.0000
--------------------------------------------------------------------------------


********************************************************************************
*  General input information                                                   *
********************************************************************************

  Species output for all configurations : 

--------------------------------------------------------------------------------
  Species    Type    Atomic    Atomic    Charge       Radii (Angs)     Library
                     Number     Mass       (e)     Cova   Ionic  VDW   Symbol
--------------------------------------------------------------------------------
    Tb       Core       65     158.93   0.600000   1.760  0.000  2.630          
    Ba       Core       56     137.33   2.300000   1.340  0.000  2.000          
    O        Core        8      16.00   0.378000   0.730  0.000  1.360          
    O        Shell       8       0.00  -1.344667   0.730  0.000  1.360          
--------------------------------------------------------------------------------


  Lattice summation method               =    Ewald          (3-D)
                                         =    Parry          (2-D)
                                         =    Saunders et al (1-D)
  Accuracy factor for lattice sums       =   12.000


  Time limit = Infinity

  Maximum range for interatomic potentials =    100000.000000 Angstroms

  General interatomic potentials :

--------------------------------------------------------------------------------
Atom  Types   Potential         A         B         C         D     Cutoffs(Ang)
  1     2                                                            Min    Max 
--------------------------------------------------------------------------------
Ba   c Ba   c Buckingham    0.219E+04 0.192      0.00      0.00     0.000 10.000
Tb   c O    s Buckingham    0.148E+04 0.266      0.00      0.00     0.000 10.000
O    s O    s Buckingham     912.     0.271      13.8      0.00     0.000 10.000
Ba   c O    s Buckingham    0.352E+04 0.267      0.00      0.00     0.000 10.000
O    c O    s Spring (c-s)   23.2      0.00      0.00      0.00     0.000  0.800
--------------------------------------------------------------------------------

********************************************************************************
*  Output for configuration   1                                                *
********************************************************************************


  Components of energy : 

--------------------------------------------------------------------------------
  Interatomic potentials     =           6.38527986 eV
  Monopole - monopole (real) =         -17.54827572 eV
  Monopole - monopole (recip)=         -54.71466654 eV
  Monopole - monopole (total)=         -72.26294225 eV
--------------------------------------------------------------------------------
  Total lattice energy : 
    Primitive unit cell      =         -65.87766239 eV
    Non-primitive unit cell  =        -197.63298717 eV
--------------------------------------------------------------------------------
  Total lattice energy (in kJmol-1): 
    Primitive unit cell      =           -6356.1874 kJ/(mole unit cells)
    Non-primitive unit cell  =          -19068.5622 kJ/(mole unit cells)
--------------------------------------------------------------------------------


  Number of variables =        2

  Maximum number of calculations  =          1000
  Maximum Hessian update interval =            10
  Maximum step size               =   1.000000000
  Maximum parameter tolerance     =   0.000010000
  Maximum function  tolerance     =   0.000010000
  Maximum gradient  tolerance     =   0.001000000
  Maximum gradient  component     =   0.010000000

  Symmetry constrained optimisation

  Symmetry used for second derivatives

  Cell parameters to be optimised using strains

  Newton-Raphson optimiser to be used

  BFGS hessian update to be used

  Start of bulk optimisation :

  Cycle:      0 Energy:       -65.877662  Gnorm:      5.672935  CPU:    0.007
  ** Hessian calculated **
  Cycle:      1 Energy:       -66.144776  Gnorm:      0.664032  CPU:    0.016
  Cycle:      2 Energy:       -66.147748  Gnorm:      0.104760  CPU:    0.024
  Cycle:      3 Energy:       -66.147826  Gnorm:      0.000153  CPU:    0.033
  ** Hessian calculated **


  **** Optimisation achieved ****


  Final energy =     -66.14782558 eV
  Final Gnorm  =       0.00023758

  Components of energy : 

--------------------------------------------------------------------------------
  Interatomic potentials     =           8.62770179 eV
  Monopole - monopole (real) =         -18.16966958 eV
  Monopole - monopole (recip)=         -56.60585779 eV
  Monopole - monopole (total)=         -74.77552737 eV
--------------------------------------------------------------------------------
  Total lattice energy : 
    Primitive unit cell      =         -66.14782558 eV
    Non-primitive unit cell  =        -198.44347674 eV
--------------------------------------------------------------------------------
  Total lattice energy (in kJmol-1): 
    Primitive unit cell      =           -6382.2540 kJ/(mole unit cells)
    Non-primitive unit cell  =          -19146.7620 kJ/(mole unit cells)
--------------------------------------------------------------------------------

  Final asymmetric unit coordinates :

--------------------------------------------------------------------------------
   No.  Atomic        x           y           z         Radius
        Label       (Frac)      (Frac)      (Frac)       (Angs) 
--------------------------------------------------------------------------------
     1  Tb    c     0.000000    0.000000    0.000000    0.000000
     2  Ba    c     0.000000    0.000000    0.250000    0.000000
     3  O     c     0.462400    0.000000    0.250000    0.000000
     4  O     s     0.462400    0.000000    0.250000    0.000000
--------------------------------------------------------------------------------

  Final Cartesian lattice vectors (Angstroms) :

        2.923825    1.688071    4.805666
       -2.923825    1.688071    4.805666
        0.000000   -3.376143    4.805666


  Final cell parameters and derivatives :

--------------------------------------------------------------------------------
       a            5.873054 Angstrom     dE/de1(xx)     0.000457 eV/strain
       b            5.873054 Angstrom     dE/de2(yy)     0.000000 eV/strain
       c            5.873054 Angstrom     dE/de3(zz)    -0.000129 eV/strain
       alpha       59.714042 Degrees      dE/de4(yz)     0.000000 eV/strain
       beta        59.714042 Degrees      dE/de5(xz)     0.000000 eV/strain
       gamma       59.714042 Degrees      dE/de6(xy)     0.000000 eV/strain
--------------------------------------------------------------------------------

  Primitive cell volume =           142.313809 Angs**3

  Density of cell =      8.033883 g/cm**3

  Non-primitive lattice parameters :

  a    =     5.847651  b   =     5.847651  c    =    14.416997
  alpha=    90.000000  beta=    90.000000  gamma=   120.000000

  Non-primitive cell volume =           426.941427 Angs**3


  Final internal derivatives :

--------------------------------------------------------------------------------
   No.  Atomic          a             b             c           Radius
        Label          (eV)          (eV)          (eV)        (eV/Angs)
--------------------------------------------------------------------------------
      1 Tb    c       0.000000      0.000000      0.000000      0.000000
      2 Ba    c       0.000000      0.000000      0.000000      0.000000
      3 O     c       0.000000      0.000000      0.000000      0.000000
      4 O     s       0.000000      0.000000      0.000000      0.000000
--------------------------------------------------------------------------------
  Maximum abs         0.000000      0.000000      0.000000      0.000000
--------------------------------------------------------------------------------


  Born effective charge tensors : 

-------------------------------------------------------------------------------
  Atom             x           y             z
-------------------------------------------------------------------------------
   1 Tb    x       0.1618     -0.0343      0.0000
           y       0.0343      0.1618      0.0000
           z       0.0000      0.0000      0.1684
-------------------------------------------------------------------------------
   2 Ba    x       2.6737      0.0000      0.0000
           y       0.0000      2.6737      0.0000
           z       0.0000      0.0000      2.6964
-------------------------------------------------------------------------------
   3 O     x      -1.1631      0.0000      0.0000
           y       0.0000     -0.7272      0.3266
           z       0.0000      0.3260     -0.9549
-------------------------------------------------------------------------------




  Elastic Constant Matrix: (Units=GPa)

-------------------------------------------------------------------------------
  Indices      1         2         3         4         5         6    
-------------------------------------------------------------------------------
       1     97.9079   30.2204   65.6736  -51.9341    0.0000    0.0000
       2     30.2204   97.9079   65.6736   51.9341    0.0000    0.0000
       3     65.6736   65.6736   50.9915    0.0000    0.0000    0.0000
       4    -51.9341   51.9341    0.0000   67.3058    0.0000    0.0000
       5      0.0000    0.0000    0.0000    0.0000   67.3058  -51.9341
       6      0.0000    0.0000    0.0000    0.0000  -51.9341   33.8437
-------------------------------------------------------------------------------


  Elastic Compliance Matrix: (Units=1/GPa)

-------------------------------------------------------------------------------
  Indices      1         2         3         4         5         6    
-------------------------------------------------------------------------------
       1   -0.052316  0.027948  0.031384 -0.061933  0.000000  0.000000
       2    0.027948 -0.052316  0.031384  0.061933  0.000000  0.000000
       3    0.031384  0.031384 -0.061230  0.000000  0.000000  0.000000
       4   -0.061933  0.061933  0.000000 -0.080720  0.000000  0.000000
       5    0.000000  0.000000  0.000000  0.000000 -0.080720 -0.123866
       6    0.000000  0.000000  0.000000  0.000000 -0.123866 -0.160529
-------------------------------------------------------------------------------

  Mechanical properties :

-------------------------------------------------------------------------------
  Convention :                    Reuss         Voigt         Hill
-------------------------------------------------------------------------------
  Bulk  Modulus (GPa)     =      64.22316      63.32696      63.77506
  Shear Modulus (GPa)     =      -7.52930      39.37370      15.92220
-------------------------------------------------------------------------------
  Velocity S-wave (km/s)  =      -0.96809       2.21381       1.40779
  Velocity P-wave (km/s)  =       2.59701       3.79698       3.25281
-------------------------------------------------------------------------------
  Compressibility (1/GPa) =    0.01557071
-------------------------------------------------------------------------------
  Stress axis :                     x             y             z
-------------------------------------------------------------------------------
  Youngs Moduli (GPa)     =     -19.11458     -19.11458     -16.33199
-------------------------------------------------------------------------------
  Poissons Ratio (x)      =                     0.53422       0.51256
  Poissons Ratio (y)      =       0.53422                     0.51256
  Poissons Ratio (z)      =       0.59989       0.59989
-------------------------------------------------------------------------------


  Piezoelectric Strain Matrix: (Units=C/m**2)

-------------------------------------------------------------------------------
  Indices      1         2         3         4         5         6    
-------------------------------------------------------------------------------
       x     0.00000   0.00000   0.00000   0.00000   0.00000   0.00000
       y     0.00000   0.00000   0.00000   0.00000   0.00000   0.00000
       z     0.00000   0.00000   0.00000   0.00000   0.00000   0.00000
-------------------------------------------------------------------------------


  Piezoelectric Stress Matrix: (Units=10**-11 C/N)

-------------------------------------------------------------------------------
  Indices      1         2         3         4         5         6    
-------------------------------------------------------------------------------
       x     0.00000   0.00000   0.00000   0.00000   0.00000   0.00000
       y     0.00000   0.00000   0.00000   0.00000   0.00000   0.00000
       z     0.00000   0.00000   0.00000   0.00000   0.00000   0.00000
-------------------------------------------------------------------------------


  Static dielectric constant tensor : 

-------------------------------------------------------------------------------
              x         y         z
-------------------------------------------------------------------------------
       x    -2.79662   0.00000   0.00000
       y     0.00000  -2.79662   0.00000
       z     0.00000   0.00000  -2.13300
--------------------------------------------------------------------------------

  High frequency dielectric constant tensor : 

-------------------------------------------------------------------------------
              x         y         z
-------------------------------------------------------------------------------
       x     1.61681   0.00000   0.00000
       y     0.00000   1.61681   0.00000
       z     0.00000   0.00000   1.62161
-------------------------------------------------------------------------------

  Static refractive indices : 

-------------------------------------------------------------------------------
    1 =   -1.67231      2 =   -1.67231      3 =   -1.46048
-------------------------------------------------------------------------------

  High frequency refractive indices : 

-------------------------------------------------------------------------------
    1 =    1.27154      2 =    1.27154      3 =    1.27342
-------------------------------------------------------------------------------


  Time to end of optimisation =       0.0568 seconds


  Peak dynamic memory used =       0.57 MB 


  Timing analysis for GULP :

--------------------------------------------------------------------------------
  Task / Subroutine                                          Time (Seconds)
--------------------------------------------------------------------------------
  Calculation of reciprocal space energy and derivatives          0.0010
  Calculation of reciprocal space energy using symmetry           0.0018
  Calculation of real space energy and derivatives                0.0101
  Calculation of real space energy using symmetry                 0.0404
  Symmetry generation of equivalent positions                     0.0003
--------------------------------------------------------------------------------
  Total CPU time                                                  0.0569
--------------------------------------------------------------------------------


  CIF file written as perov.cif                                               


  Job Finished at 09:26.33  6th April      2017                               

