********************************************************************************
*                       GENERAL UTILITY LATTICE PROGRAM                        *
*                                 Julian Gale                                  *
*                      Nanochemistry Research Institute                        *
*                           Department of Chemistry                            *
*                    Curtin University, Western Australia                      *
********************************************************************************
* Version = 4.3.2 * Last modified =  3rd March 2015                            *
********************************************************************************
*  optimise     - perform optimisation run                                     *
*  cell_only    - only optimise unit cell                                      *
*  property     - calculate properties for final geometry                      *
********************************************************************************

  Job Started  at 09:26.38  6th April      2017                               

  Number of CPUs =     1


  Total number of configurations input =   1

********************************************************************************
*  Input for Configuration =   1                                               *
********************************************************************************

  Formula = Tb2Ba2O6                                                    

  Number of irreducible atoms/shells =       4


  Total number atoms/shells =      16

  Dimensionality = 3               :  Bulk   


  Symmetry :

  Crystal family                   :  Hexagonal   
  Crystal class  (Groth - 1921)    :  Ditrigonal Scalenohedral             

  Space group (centrosymmetric)    :  R -3 C          

  Patterson group                  :  R -3 m   

  Cartesian lattice vectors (Angstroms) :

        3.039900    1.755087    4.922700
       -3.039900    1.755087    4.922700
        0.000000   -3.510174    4.922700

  Primitive cell parameters :            Full cell parameters :

  a =   6.0460    alpha =  60.3700       a =   6.0798    alpha =  90.0000
  b =   6.0460    beta  =  60.3700       b =   6.0798    beta  =  90.0000
  c =   6.0460    gamma =  60.3700       c =  14.7681    gamma = 120.0000

  Initial volumes (Angstroms**3):

  Primitive cell =         157.584170    Full cell =         472.752509

  Temperature of configuration =  0.000     K 

  Pressure of configuration =         0.000 GPa 

  Fractional coordinates of asymmetric unit :

--------------------------------------------------------------------------------
   No.  Atomic       x           y          z         Charge      Occupancy
        Label      (Frac)      (Frac)     (Frac)        (e)         (Frac)  
--------------------------------------------------------------------------------
      1 Tb    c    0.000000    0.000000    0.000000     1.30000    1.000000    
      2 Ba    c    0.000000    0.000000    0.250000     2.30000    1.000000    
      3 O     c    0.462400    0.000000    0.250000     0.37800    1.000000    
      4 O     s    0.462400    0.000000    0.250000    -1.57800    1.000000    
--------------------------------------------------------------------------------


  Constraints : 

--------------------------------------------------------------------------------
  Constraint no.      Unconstrained     Constrained    Coefficient    Offset
                         Variable         Variable
--------------------------------------------------------------------------------
           1              Strain 1        Strain 2       1.00000      0.0000
--------------------------------------------------------------------------------


********************************************************************************
*  General input information                                                   *
********************************************************************************

  Species output for all configurations : 

--------------------------------------------------------------------------------
  Species    Type    Atomic    Atomic    Charge       Radii (Angs)     Library
                     Number     Mass       (e)     Cova   Ionic  VDW   Symbol
--------------------------------------------------------------------------------
    Tb       Core       65     158.93   1.300000   1.760  0.000  2.630          
    Ba       Core       56     137.33   2.300000   1.340  0.000  2.000          
    O        Core        8      16.00   0.378000   0.730  0.000  1.360          
    O        Shell       8       0.00  -1.578000   0.730  0.000  1.360          
--------------------------------------------------------------------------------


  Lattice summation method               =    Ewald          (3-D)
                                         =    Parry          (2-D)
                                         =    Saunders et al (1-D)
  Accuracy factor for lattice sums       =   12.000


  Time limit = Infinity

  Maximum range for interatomic potentials =    100000.000000 Angstroms

  General interatomic potentials :

--------------------------------------------------------------------------------
Atom  Types   Potential         A         B         C         D     Cutoffs(Ang)
  1     2                                                            Min    Max 
--------------------------------------------------------------------------------
Ba   c Ba   c Buckingham    0.219E+04 0.192      0.00      0.00     0.000 10.000
Tb   c O    s Buckingham    0.148E+04 0.266      0.00      0.00     0.000 10.000
O    s O    s Buckingham     912.     0.271      13.8      0.00     0.000 10.000
Ba   c O    s Buckingham    0.352E+04 0.267      0.00      0.00     0.000 10.000
O    c O    s Spring (c-s)   31.9      0.00      0.00      0.00     0.000  0.800
--------------------------------------------------------------------------------

********************************************************************************
*  Output for configuration   1                                                *
********************************************************************************


  Components of energy : 

--------------------------------------------------------------------------------
  Interatomic potentials     =           6.38527986 eV
  Monopole - monopole (real) =         -31.34912504 eV
  Monopole - monopole (recip)=         -74.37038974 eV
  Monopole - monopole (total)=        -105.71951478 eV
--------------------------------------------------------------------------------
  Total lattice energy : 
    Primitive unit cell      =         -99.33423492 eV
    Non-primitive unit cell  =        -298.00270476 eV
--------------------------------------------------------------------------------
  Total lattice energy (in kJmol-1): 
    Primitive unit cell      =           -9584.2352 kJ/(mole unit cells)
    Non-primitive unit cell  =          -28752.7056 kJ/(mole unit cells)
--------------------------------------------------------------------------------


  Number of variables =        2

  Maximum number of calculations  =          1000
  Maximum Hessian update interval =            10
  Maximum step size               =   1.000000000
  Maximum parameter tolerance     =   0.000010000
  Maximum function  tolerance     =   0.000010000
  Maximum gradient  tolerance     =   0.001000000
  Maximum gradient  component     =   0.010000000

  Symmetry constrained optimisation

  Symmetry used for second derivatives

  Cell parameters to be optimised using strains

  Newton-Raphson optimiser to be used

  BFGS hessian update to be used

  Start of bulk optimisation :

  Cycle:      0 Energy:       -99.334235  Gnorm:     18.305854  CPU:    0.007
  ** Hessian calculated **
  Cycle:      1 Energy:      -101.700720  Gnorm:      5.330570  CPU:    0.015
  Cycle:      2 Energy:      -101.851735  Gnorm:      0.026359  CPU:    0.026
  Cycle:      3 Energy:      -101.851745  Gnorm:      0.003559  CPU:    0.034


  **** Optimisation achieved ****


  Final energy =    -101.85174532 eV
  Final Gnorm  =       0.00007627

  Components of energy : 

--------------------------------------------------------------------------------
  Interatomic potentials     =          14.09176518 eV
  Monopole - monopole (real) =         -34.38748728 eV
  Monopole - monopole (recip)=         -81.55602322 eV
  Monopole - monopole (total)=        -115.94351050 eV
--------------------------------------------------------------------------------
  Total lattice energy : 
    Primitive unit cell      =        -101.85174532 eV
    Non-primitive unit cell  =        -305.55523596 eV
--------------------------------------------------------------------------------
  Total lattice energy (in kJmol-1): 
    Primitive unit cell      =           -9827.1365 kJ/(mole unit cells)
    Non-primitive unit cell  =          -29481.4094 kJ/(mole unit cells)
--------------------------------------------------------------------------------

  Final asymmetric unit coordinates :

--------------------------------------------------------------------------------
   No.  Atomic        x           y           z         Radius
        Label       (Frac)      (Frac)      (Frac)       (Angs) 
--------------------------------------------------------------------------------
     1  Tb    c     0.000000    0.000000    0.000000    0.000000
     2  Ba    c     0.000000    0.000000    0.250000    0.000000
     3  O     c     0.462400    0.000000    0.250000    0.000000
     4  O     s     0.462400    0.000000    0.250000    0.000000
--------------------------------------------------------------------------------

  Final Cartesian lattice vectors (Angstroms) :

        2.766935    1.597491    4.505674
       -2.766935    1.597491    4.505674
        0.000000   -3.194982    4.505674


  Final cell parameters and derivatives :

--------------------------------------------------------------------------------
       a            5.523496 Angstrom     dE/de1(xx)    -0.000129 eV/strain
       b            5.523496 Angstrom     dE/de2(yy)     0.000000 eV/strain
       c            5.523496 Angstrom     dE/de3(zz)    -0.000082 eV/strain
       alpha       60.124303 Degrees      dE/de4(yz)     0.000000 eV/strain
       beta        60.124303 Degrees      dE/de5(xz)     0.000000 eV/strain
       gamma       60.124303 Degrees      dE/de6(xy)     0.000000 eV/strain
--------------------------------------------------------------------------------

  Primitive cell volume =           119.494635 Angs**3

  Density of cell =      9.568066 g/cm**3

  Non-primitive lattice parameters :

  a    =     5.533870  b   =     5.533870  c    =    13.517023
  alpha=    90.000000  beta=    90.000000  gamma=   120.000000

  Non-primitive cell volume =           358.483905 Angs**3


  Final internal derivatives :

--------------------------------------------------------------------------------
   No.  Atomic          a             b             c           Radius
        Label          (eV)          (eV)          (eV)        (eV/Angs)
--------------------------------------------------------------------------------
      1 Tb    c       0.000000      0.000000      0.000000      0.000000
      2 Ba    c       0.000000      0.000000      0.000000      0.000000
      3 O     c       0.000000      0.000000      0.000000      0.000000
      4 O     s       0.000000      0.000000      0.000000      0.000000
--------------------------------------------------------------------------------
  Maximum abs         0.000000      0.000000      0.000000      0.000000
--------------------------------------------------------------------------------


  Born effective charge tensors : 

-------------------------------------------------------------------------------
  Atom             x           y             z
-------------------------------------------------------------------------------
   1 Tb    x       0.7268     -0.0080      0.0000
           y       0.0080      0.7268      0.0000
           z       0.0000      0.0000      0.7342
-------------------------------------------------------------------------------
   2 Ba    x       2.6042      0.0000      0.0000
           y       0.0000      2.6042      0.0000
           z       0.0000      0.0000      2.6485
-------------------------------------------------------------------------------
   3 O     x      -1.2646      0.0000      0.0000
           y       0.0000     -0.9561      0.2412
           z       0.0000      0.2423     -1.1276
-------------------------------------------------------------------------------




  Elastic Constant Matrix: (Units=GPa)

-------------------------------------------------------------------------------
  Indices      1         2         3         4         5         6    
-------------------------------------------------------------------------------
       1    201.1382   47.5050   86.9012  -51.0994    0.0000    0.0000
       2     47.5050  201.1382   86.9012   51.0994    0.0000    0.0000
       3     86.9012   86.9012  142.4957    0.0000    0.0000    0.0000
       4    -51.0994   51.0994    0.0000   93.6879    0.0000    0.0000
       5      0.0000    0.0000    0.0000    0.0000   93.6879  -51.0994
       6      0.0000    0.0000    0.0000    0.0000  -51.0994   76.8166
-------------------------------------------------------------------------------


  Elastic Compliance Matrix: (Units=1/GPa)

-------------------------------------------------------------------------------
  Indices      1         2         3         4         5         6    
-------------------------------------------------------------------------------
       1    0.008613 -0.001603 -0.004275  0.005572  0.000000  0.000000
       2   -0.001603  0.008613 -0.004275 -0.005572  0.000000  0.000000
       3   -0.004275 -0.004275  0.012232  0.000000  0.000000  0.000000
       4    0.005572 -0.005572  0.000000  0.016752  0.000000  0.000000
       5    0.000000  0.000000  0.000000  0.000000  0.016752  0.011143
       6    0.000000  0.000000  0.000000  0.000000  0.011143  0.020431
-------------------------------------------------------------------------------

  Mechanical properties :

-------------------------------------------------------------------------------
  Convention :                    Reuss         Voigt         Hill
-------------------------------------------------------------------------------
  Bulk  Modulus (GPa)     =     109.26714     109.70963     109.48838
  Shear Modulus (GPa)     =      46.83926      74.40282      60.62104
-------------------------------------------------------------------------------
  Velocity S-wave (km/s)  =       2.21255       2.78858       2.51710
  Velocity P-wave (km/s)  =       4.23641       4.67273       4.45991
-------------------------------------------------------------------------------
  Compressibility (1/GPa) =    0.00915188
-------------------------------------------------------------------------------
  Stress axis :                     x             y             z
-------------------------------------------------------------------------------
  Youngs Moduli (GPa)     =     116.10666     116.10666      81.75151
-------------------------------------------------------------------------------
  Poissons Ratio (x)      =                     0.18607       0.34950
  Poissons Ratio (y)      =       0.18607                     0.34950
  Poissons Ratio (z)      =       0.49638       0.49638
-------------------------------------------------------------------------------


  Piezoelectric Strain Matrix: (Units=C/m**2)

-------------------------------------------------------------------------------
  Indices      1         2         3         4         5         6    
-------------------------------------------------------------------------------
       x     0.00000   0.00000   0.00000   0.00000   0.00000   0.00000
       y     0.00000   0.00000   0.00000   0.00000   0.00000   0.00000
       z     0.00000   0.00000   0.00000   0.00000   0.00000   0.00000
-------------------------------------------------------------------------------


  Piezoelectric Stress Matrix: (Units=10**-11 C/N)

-------------------------------------------------------------------------------
  Indices      1         2         3         4         5         6    
-------------------------------------------------------------------------------
       x     0.00000   0.00000   0.00000   0.00000   0.00000   0.00000
       y     0.00000   0.00000   0.00000   0.00000   0.00000   0.00000
       z     0.00000   0.00000   0.00000   0.00000   0.00000   0.00000
-------------------------------------------------------------------------------


  Static dielectric constant tensor : 

-------------------------------------------------------------------------------
              x         y         z
-------------------------------------------------------------------------------
       x   -11.21396   0.00000   0.00000
       y     0.00000 -11.21396   0.00000
       z     0.00000   0.00000  -5.79978
--------------------------------------------------------------------------------

  High frequency dielectric constant tensor : 

-------------------------------------------------------------------------------
              x         y         z
-------------------------------------------------------------------------------
       x     1.70600   0.00000   0.00000
       y     0.00000   1.70600   0.00000
       z     0.00000   0.00000   1.71496
-------------------------------------------------------------------------------

  Static refractive indices : 

-------------------------------------------------------------------------------
    1 =   -3.34872      2 =   -3.34872      3 =   -2.40827
-------------------------------------------------------------------------------

  High frequency refractive indices : 

-------------------------------------------------------------------------------
    1 =    1.30614      2 =    1.30614      3 =    1.30957
-------------------------------------------------------------------------------


  Time to end of optimisation =       0.0538 seconds


  Peak dynamic memory used =       0.57 MB 


  Timing analysis for GULP :

--------------------------------------------------------------------------------
  Task / Subroutine                                          Time (Seconds)
--------------------------------------------------------------------------------
  Calculation of reciprocal space energy and derivatives          0.0009
  Calculation of reciprocal space energy using symmetry           0.0016
  Calculation of real space energy and derivatives                0.0099
  Calculation of real space energy using symmetry                 0.0379
  Symmetry generation of equivalent positions                     0.0003
--------------------------------------------------------------------------------
  Total CPU time                                                  0.0538
--------------------------------------------------------------------------------


  CIF file written as perov.cif                                               


  Job Finished at 09:26.39  6th April      2017                               

