********************************************************************************
*                       GENERAL UTILITY LATTICE PROGRAM                        *
*                                 Julian Gale                                  *
*                      Nanochemistry Research Institute                        *
*                           Department of Chemistry                            *
*                    Curtin University, Western Australia                      *
********************************************************************************
* Version = 4.3.2 * Last modified =  3rd March 2015                            *
********************************************************************************
*  optimise     - perform optimisation run                                     *
*  cell_only    - only optimise unit cell                                      *
*  property     - calculate properties for final geometry                      *
********************************************************************************

  Job Started  at 09:26.36  6th April      2017                               

  Number of CPUs =     1


  Total number of configurations input =   1

********************************************************************************
*  Input for Configuration =   1                                               *
********************************************************************************

  Formula = Tb2Ba2O6                                                    

  Number of irreducible atoms/shells =       4


  Total number atoms/shells =      16

  Dimensionality = 3               :  Bulk   


  Symmetry :

  Crystal family                   :  Hexagonal   
  Crystal class  (Groth - 1921)    :  Ditrigonal Scalenohedral             

  Space group (centrosymmetric)    :  R -3 C          

  Patterson group                  :  R -3 m   

  Cartesian lattice vectors (Angstroms) :

        3.039900    1.755087    4.922700
       -3.039900    1.755087    4.922700
        0.000000   -3.510174    4.922700

  Primitive cell parameters :            Full cell parameters :

  a =   6.0460    alpha =  60.3700       a =   6.0798    alpha =  90.0000
  b =   6.0460    beta  =  60.3700       b =   6.0798    beta  =  90.0000
  c =   6.0460    gamma =  60.3700       c =  14.7681    gamma = 120.0000

  Initial volumes (Angstroms**3):

  Primitive cell =         157.584170    Full cell =         472.752509

  Temperature of configuration =  0.000     K 

  Pressure of configuration =         0.000 GPa 

  Fractional coordinates of asymmetric unit :

--------------------------------------------------------------------------------
   No.  Atomic       x           y          z         Charge      Occupancy
        Label      (Frac)      (Frac)     (Frac)        (e)         (Frac)  
--------------------------------------------------------------------------------
      1 Tb    c    0.000000    0.000000    0.000000     0.90000    1.000000    
      2 Ba    c    0.000000    0.000000    0.250000     2.30000    1.000000    
      3 O     c    0.462400    0.000000    0.250000     0.37800    1.000000    
      4 O     s    0.462400    0.000000    0.250000    -1.44467    1.000000    
--------------------------------------------------------------------------------


  Constraints : 

--------------------------------------------------------------------------------
  Constraint no.      Unconstrained     Constrained    Coefficient    Offset
                         Variable         Variable
--------------------------------------------------------------------------------
           1              Strain 1        Strain 2       1.00000      0.0000
--------------------------------------------------------------------------------


********************************************************************************
*  General input information                                                   *
********************************************************************************

  Species output for all configurations : 

--------------------------------------------------------------------------------
  Species    Type    Atomic    Atomic    Charge       Radii (Angs)     Library
                     Number     Mass       (e)     Cova   Ionic  VDW   Symbol
--------------------------------------------------------------------------------
    Tb       Core       65     158.93   0.900000   1.760  0.000  2.630          
    Ba       Core       56     137.33   2.300000   1.340  0.000  2.000          
    O        Core        8      16.00   0.378000   0.730  0.000  1.360          
    O        Shell       8       0.00  -1.444667   0.730  0.000  1.360          
--------------------------------------------------------------------------------


  Lattice summation method               =    Ewald          (3-D)
                                         =    Parry          (2-D)
                                         =    Saunders et al (1-D)
  Accuracy factor for lattice sums       =   12.000


  Time limit = Infinity

  Maximum range for interatomic potentials =    100000.000000 Angstroms

  General interatomic potentials :

--------------------------------------------------------------------------------
Atom  Types   Potential         A         B         C         D     Cutoffs(Ang)
  1     2                                                            Min    Max 
--------------------------------------------------------------------------------
Ba   c Ba   c Buckingham    0.219E+04 0.192      0.00      0.00     0.000 10.000
Tb   c O    s Buckingham    0.148E+04 0.266      0.00      0.00     0.000 10.000
O    s O    s Buckingham     912.     0.271      13.8      0.00     0.000 10.000
Ba   c O    s Buckingham    0.352E+04 0.267      0.00      0.00     0.000 10.000
O    c O    s Spring (c-s)   26.8      0.00      0.00      0.00     0.000  0.800
--------------------------------------------------------------------------------

********************************************************************************
*  Output for configuration   1                                                *
********************************************************************************


  Components of energy : 

--------------------------------------------------------------------------------
  Interatomic potentials     =           6.38527986 eV
  Monopole - monopole (real) =         -22.92550363 eV
  Monopole - monopole (recip)=         -62.08199591 eV
  Monopole - monopole (total)=         -85.00749954 eV
--------------------------------------------------------------------------------
  Total lattice energy : 
    Primitive unit cell      =         -78.62221967 eV
    Non-primitive unit cell  =        -235.86665902 eV
--------------------------------------------------------------------------------
  Total lattice energy (in kJmol-1): 
    Primitive unit cell      =           -7585.8423 kJ/(mole unit cells)
    Non-primitive unit cell  =          -22757.5270 kJ/(mole unit cells)
--------------------------------------------------------------------------------


  Number of variables =        2

  Maximum number of calculations  =          1000
  Maximum Hessian update interval =            10
  Maximum step size               =   1.000000000
  Maximum parameter tolerance     =   0.000010000
  Maximum function  tolerance     =   0.000010000
  Maximum gradient  tolerance     =   0.001000000
  Maximum gradient  component     =   0.010000000

  Symmetry constrained optimisation

  Symmetry used for second derivatives

  Cell parameters to be optimised using strains

  Newton-Raphson optimiser to be used

  BFGS hessian update to be used

  Start of bulk optimisation :

  Cycle:      0 Energy:       -78.622220  Gnorm:     10.489210  CPU:    0.007
  ** Hessian calculated **
  Cycle:      1 Energy:       -79.475782  Gnorm:      2.193474  CPU:    0.015
  Cycle:      2 Energy:       -79.501213  Gnorm:      0.578023  CPU:    0.024
  Cycle:      3 Energy:       -79.503237  Gnorm:      0.000102  CPU:    0.034


  **** Optimisation achieved ****


  Final energy =     -79.50323745 eV
  Final Gnorm  =       0.00000251

  Components of energy : 

--------------------------------------------------------------------------------
  Interatomic potentials     =          10.63104883 eV
  Monopole - monopole (real) =         -24.31060994 eV
  Monopole - monopole (recip)=         -65.82367634 eV
  Monopole - monopole (total)=         -90.13428628 eV
--------------------------------------------------------------------------------
  Total lattice energy : 
    Primitive unit cell      =         -79.50323745 eV
    Non-primitive unit cell  =        -238.50971235 eV
--------------------------------------------------------------------------------
  Total lattice energy (in kJmol-1): 
    Primitive unit cell      =           -7670.8471 kJ/(mole unit cells)
    Non-primitive unit cell  =          -23012.5413 kJ/(mole unit cells)
--------------------------------------------------------------------------------

  Final asymmetric unit coordinates :

--------------------------------------------------------------------------------
   No.  Atomic        x           y           z         Radius
        Label       (Frac)      (Frac)      (Frac)       (Angs) 
--------------------------------------------------------------------------------
     1  Tb    c     0.000000    0.000000    0.000000    0.000000
     2  Ba    c     0.000000    0.000000    0.250000    0.000000
     3  O     c     0.462400    0.000000    0.250000    0.000000
     4  O     s     0.462400    0.000000    0.250000    0.000000
--------------------------------------------------------------------------------

  Final Cartesian lattice vectors (Angstroms) :

        2.864643    1.653902    4.650851
       -2.864643    1.653902    4.650851
        0.000000   -3.307805    4.650851


  Final cell parameters and derivatives :

--------------------------------------------------------------------------------
       a            5.707187 Angstrom     dE/de1(xx)     0.000004 eV/strain
       b            5.707187 Angstrom     dE/de2(yy)     0.000000 eV/strain
       c            5.707187 Angstrom     dE/de3(zz)    -0.000003 eV/strain
       alpha       60.256343 Degrees      dE/de4(yz)     0.000000 eV/strain
       beta        60.256343 Degrees      dE/de5(xz)     0.000000 eV/strain
       gamma       60.256343 Degrees      dE/de6(xy)     0.000000 eV/strain
--------------------------------------------------------------------------------

  Primitive cell volume =           132.209909 Angs**3

  Density of cell =      8.647858 g/cm**3

  Non-primitive lattice parameters :

  a    =     5.729286  b   =     5.729286  c    =    13.952552
  alpha=    90.000000  beta=    90.000000  gamma=   120.000000

  Non-primitive cell volume =           396.629728 Angs**3


  Final internal derivatives :

--------------------------------------------------------------------------------
   No.  Atomic          a             b             c           Radius
        Label          (eV)          (eV)          (eV)        (eV/Angs)
--------------------------------------------------------------------------------
      1 Tb    c       0.000000      0.000000      0.000000      0.000000
      2 Ba    c       0.000000      0.000000      0.000000      0.000000
      3 O     c       0.000000      0.000000      0.000000      0.000000
      4 O     s       0.000000      0.000000      0.000000      0.000000
--------------------------------------------------------------------------------
  Maximum abs         0.000000      0.000000      0.000000      0.000000
--------------------------------------------------------------------------------


  Born effective charge tensors : 

-------------------------------------------------------------------------------
  Atom             x           y             z
-------------------------------------------------------------------------------
   1 Tb    x       0.3959     -0.0212      0.0000
           y       0.0212      0.3959      0.0000
           z       0.0000      0.0000      0.4128
-------------------------------------------------------------------------------
   2 Ba    x       2.6471      0.0000      0.0000
           y       0.0000      2.6471      0.0000
           z       0.0000      0.0000      2.6819
-------------------------------------------------------------------------------
   3 O     x      -1.2065      0.0000      0.0000
           y       0.0000     -0.8222      0.2916
           z       0.0000      0.2948     -1.0316
-------------------------------------------------------------------------------




  Elastic Constant Matrix: (Units=GPa)

-------------------------------------------------------------------------------
  Indices      1         2         3         4         5         6    
-------------------------------------------------------------------------------
       1    131.8704   39.7103   73.3515  -50.3244    0.0000    0.0000
       2     39.7103  131.8704   73.3515   50.3244    0.0000    0.0000
       3     73.3515   73.3515   83.7490    0.0000    0.0000    0.0000
       4    -50.3244   50.3244    0.0000   75.7665    0.0000    0.0000
       5      0.0000    0.0000    0.0000    0.0000   75.7665  -50.3244
       6      0.0000    0.0000    0.0000    0.0000  -50.3244   46.0801
-------------------------------------------------------------------------------


  Elastic Compliance Matrix: (Units=1/GPa)

-------------------------------------------------------------------------------
  Indices      1         2         3         4         5         6    
-------------------------------------------------------------------------------
       1    0.031359 -0.008153 -0.020326  0.026244  0.000000  0.000000
       2   -0.008153  0.031359 -0.020326 -0.026244  0.000000  0.000000
       3   -0.020326 -0.020326  0.047545  0.000000  0.000000  0.000000
       4    0.026244 -0.026244  0.000000  0.048061  0.000000  0.000000
       5    0.000000  0.000000  0.000000  0.000000  0.048061  0.052488
       6    0.000000  0.000000  0.000000  0.000000  0.052488  0.079024
-------------------------------------------------------------------------------

  Mechanical properties :

-------------------------------------------------------------------------------
  Convention :                    Reuss         Voigt         Hill
-------------------------------------------------------------------------------
  Bulk  Modulus (GPa)     =      79.01497      80.03517      79.52507
  Shear Modulus (GPa)     =      12.91201      50.26103      31.58652
-------------------------------------------------------------------------------
  Velocity S-wave (km/s)  =       1.22192       2.41080       1.91116
  Velocity P-wave (km/s)  =       3.33582       4.12361       3.75046
-------------------------------------------------------------------------------
  Compressibility (1/GPa) =    0.01265583
-------------------------------------------------------------------------------
  Stress axis :                     x             y             z
-------------------------------------------------------------------------------
  Youngs Moduli (GPa)     =      31.88839      31.88839      21.03281
-------------------------------------------------------------------------------
  Poissons Ratio (x)      =                     0.25998       0.42750
  Poissons Ratio (y)      =       0.25998                     0.42750
  Poissons Ratio (z)      =       0.64815       0.64815
-------------------------------------------------------------------------------


  Piezoelectric Strain Matrix: (Units=C/m**2)

-------------------------------------------------------------------------------
  Indices      1         2         3         4         5         6    
-------------------------------------------------------------------------------
       x     0.00000   0.00000   0.00000   0.00000   0.00000   0.00000
       y     0.00000   0.00000   0.00000   0.00000   0.00000   0.00000
       z     0.00000   0.00000   0.00000   0.00000   0.00000   0.00000
-------------------------------------------------------------------------------


  Piezoelectric Stress Matrix: (Units=10**-11 C/N)

-------------------------------------------------------------------------------
  Indices      1         2         3         4         5         6    
-------------------------------------------------------------------------------
       x     0.00000   0.00000   0.00000   0.00000   0.00000   0.00000
       y     0.00000   0.00000   0.00000   0.00000   0.00000   0.00000
       z     0.00000   0.00000   0.00000   0.00000   0.00000   0.00000
-------------------------------------------------------------------------------


  Static dielectric constant tensor : 

-------------------------------------------------------------------------------
              x         y         z
-------------------------------------------------------------------------------
       x    -4.74803   0.00000   0.00000
       y     0.00000  -4.74803   0.00000
       z     0.00000   0.00000  -3.31071
--------------------------------------------------------------------------------

  High frequency dielectric constant tensor : 

-------------------------------------------------------------------------------
              x         y         z
-------------------------------------------------------------------------------
       x     1.65076   0.00000   0.00000
       y     0.00000   1.65076   0.00000
       z     0.00000   0.00000   1.65965
-------------------------------------------------------------------------------

  Static refractive indices : 

-------------------------------------------------------------------------------
    1 =   -2.17900      2 =   -2.17900      3 =   -1.81953
-------------------------------------------------------------------------------

  High frequency refractive indices : 

-------------------------------------------------------------------------------
    1 =    1.28482      2 =    1.28482      3 =    1.28827
-------------------------------------------------------------------------------


  Time to end of optimisation =       0.0545 seconds


  Peak dynamic memory used =       0.57 MB 


  Timing analysis for GULP :

--------------------------------------------------------------------------------
  Task / Subroutine                                          Time (Seconds)
--------------------------------------------------------------------------------
  Calculation of reciprocal space energy and derivatives          0.0011
  Calculation of reciprocal space energy using symmetry           0.0016
  Calculation of real space energy and derivatives                0.0103
  Calculation of real space energy using symmetry                 0.0381
  Symmetry generation of equivalent positions                     0.0003
--------------------------------------------------------------------------------
  Total CPU time                                                  0.0545
--------------------------------------------------------------------------------


  CIF file written as perov.cif                                               


  Job Finished at 09:26.36  6th April      2017                               

