********************************************************************************
*                       GENERAL UTILITY LATTICE PROGRAM                        *
*                                 Julian Gale                                  *
*                      Nanochemistry Research Institute                        *
*                           Department of Chemistry                            *
*                    Curtin University, Western Australia                      *
********************************************************************************
* Version = 4.3.2 * Last modified =  3rd March 2015                            *
********************************************************************************
*  optimise     - perform optimisation run                                     *
*  cell_only    - only optimise unit cell                                      *
*  property     - calculate properties for final geometry                      *
********************************************************************************

  Job Started  at 09:26.31  6th April      2017                               

  Number of CPUs =     1


  Total number of configurations input =   1

********************************************************************************
*  Input for Configuration =   1                                               *
********************************************************************************

  Formula = Tb2Ba2O6                                                    

  Number of irreducible atoms/shells =       4


  Total number atoms/shells =      16

  Dimensionality = 3               :  Bulk   


  Symmetry :

  Crystal family                   :  Hexagonal   
  Crystal class  (Groth - 1921)    :  Ditrigonal Scalenohedral             

  Space group (centrosymmetric)    :  R -3 C          

  Patterson group                  :  R -3 m   

  Cartesian lattice vectors (Angstroms) :

        3.039900    1.755087    4.922700
       -3.039900    1.755087    4.922700
        0.000000   -3.510174    4.922700

  Primitive cell parameters :            Full cell parameters :

  a =   6.0460    alpha =  60.3700       a =   6.0798    alpha =  90.0000
  b =   6.0460    beta  =  60.3700       b =   6.0798    beta  =  90.0000
  c =   6.0460    gamma =  60.3700       c =  14.7681    gamma = 120.0000

  Initial volumes (Angstroms**3):

  Primitive cell =         157.584170    Full cell =         472.752509

  Temperature of configuration =  0.000     K 

  Pressure of configuration =         0.000 GPa 

  Fractional coordinates of asymmetric unit :

--------------------------------------------------------------------------------
   No.  Atomic       x           y          z         Charge      Occupancy
        Label      (Frac)      (Frac)     (Frac)        (e)         (Frac)  
--------------------------------------------------------------------------------
      1 Tb    c    0.000000    0.000000    0.000000     0.50000    1.000000    
      2 Ba    c    0.000000    0.000000    0.250000     2.20000    1.000000    
      3 O     c    0.462400    0.000000    0.250000     0.37800    1.000000    
      4 O     s    0.462400    0.000000    0.250000    -1.27800    1.000000    
--------------------------------------------------------------------------------


  Constraints : 

--------------------------------------------------------------------------------
  Constraint no.      Unconstrained     Constrained    Coefficient    Offset
                         Variable         Variable
--------------------------------------------------------------------------------
           1              Strain 1        Strain 2       1.00000      0.0000
--------------------------------------------------------------------------------


********************************************************************************
*  General input information                                                   *
********************************************************************************

  Species output for all configurations : 

--------------------------------------------------------------------------------
  Species    Type    Atomic    Atomic    Charge       Radii (Angs)     Library
                     Number     Mass       (e)     Cova   Ionic  VDW   Symbol
--------------------------------------------------------------------------------
    Tb       Core       65     158.93   0.500000   1.760  0.000  2.630          
    Ba       Core       56     137.33   2.200000   1.340  0.000  2.000          
    O        Core        8      16.00   0.378000   0.730  0.000  1.360          
    O        Shell       8       0.00  -1.278000   0.730  0.000  1.360          
--------------------------------------------------------------------------------


  Lattice summation method               =    Ewald          (3-D)
                                         =    Parry          (2-D)
                                         =    Saunders et al (1-D)
  Accuracy factor for lattice sums       =   12.000


  Time limit = Infinity

  Maximum range for interatomic potentials =    100000.000000 Angstroms

  General interatomic potentials :

--------------------------------------------------------------------------------
Atom  Types   Potential         A         B         C         D     Cutoffs(Ang)
  1     2                                                            Min    Max 
--------------------------------------------------------------------------------
Ba   c Ba   c Buckingham    0.219E+04 0.192      0.00      0.00     0.000 10.000
Tb   c O    s Buckingham    0.148E+04 0.266      0.00      0.00     0.000 10.000
O    s O    s Buckingham     912.     0.271      13.8      0.00     0.000 10.000
Ba   c O    s Buckingham    0.352E+04 0.267      0.00      0.00     0.000 10.000
O    c O    s Spring (c-s)   20.9      0.00      0.00      0.00     0.000  0.800
--------------------------------------------------------------------------------

********************************************************************************
*  Output for configuration   1                                                *
********************************************************************************


  Components of energy : 

--------------------------------------------------------------------------------
  Interatomic potentials     =           6.38527986 eV
  Monopole - monopole (real) =         -14.90774331 eV
  Monopole - monopole (recip)=         -48.55892460 eV
  Monopole - monopole (total)=         -63.46666792 eV
--------------------------------------------------------------------------------
  Total lattice energy : 
    Primitive unit cell      =         -57.08138805 eV
    Non-primitive unit cell  =        -171.24416416 eV
--------------------------------------------------------------------------------
  Total lattice energy (in kJmol-1): 
    Primitive unit cell      =           -5507.4814 kJ/(mole unit cells)
    Non-primitive unit cell  =          -16522.4441 kJ/(mole unit cells)
--------------------------------------------------------------------------------


  Number of variables =        2

  Maximum number of calculations  =          1000
  Maximum Hessian update interval =            10
  Maximum step size               =   1.000000000
  Maximum parameter tolerance     =   0.000010000
  Maximum function  tolerance     =   0.000010000
  Maximum gradient  tolerance     =   0.001000000
  Maximum gradient  component     =   0.010000000

  Symmetry constrained optimisation

  Symmetry used for second derivatives

  Cell parameters to be optimised using strains

  Newton-Raphson optimiser to be used

  BFGS hessian update to be used

  Start of bulk optimisation :

  Cycle:      0 Energy:       -57.081388  Gnorm:      2.360995  CPU:    0.007
  ** Hessian calculated **
  Cycle:      1 Energy:       -57.129824  Gnorm:      0.021850  CPU:    0.018
  Cycle:      2 Energy:       -57.129828  Gnorm:      0.001618  CPU:    0.026


  **** Optimisation achieved ****


  Final energy =     -57.12982770 eV
  Final Gnorm  =       0.00000420

  Components of energy : 

--------------------------------------------------------------------------------
  Interatomic potentials     =           7.30594245 eV
  Monopole - monopole (real) =         -15.14374669 eV
  Monopole - monopole (recip)=         -49.29202346 eV
  Monopole - monopole (total)=         -64.43577015 eV
--------------------------------------------------------------------------------
  Total lattice energy : 
    Primitive unit cell      =         -57.12982770 eV
    Non-primitive unit cell  =        -171.38948309 eV
--------------------------------------------------------------------------------
  Total lattice energy (in kJmol-1): 
    Primitive unit cell      =           -5512.1551 kJ/(mole unit cells)
    Non-primitive unit cell  =          -16536.4652 kJ/(mole unit cells)
--------------------------------------------------------------------------------

  Final asymmetric unit coordinates :

--------------------------------------------------------------------------------
   No.  Atomic        x           y           z         Radius
        Label       (Frac)      (Frac)      (Frac)       (Angs) 
--------------------------------------------------------------------------------
     1  Tb    c     0.000000    0.000000    0.000000    0.000000
     2  Ba    c     0.000000    0.000000    0.250000    0.000000
     3  O     c     0.462400    0.000000    0.250000    0.000000
     4  O     s     0.462400    0.000000    0.250000    0.000000
--------------------------------------------------------------------------------

  Final Cartesian lattice vectors (Angstroms) :

        2.982016    1.721668    4.890842
       -2.982016    1.721668    4.890842
        0.000000   -3.443336    4.890842


  Final cell parameters and derivatives :

--------------------------------------------------------------------------------
       a            5.981380 Angstrom     dE/de1(xx)    -0.000004 eV/strain
       b            5.981380 Angstrom     dE/de2(yy)     0.000000 eV/strain
       c            5.981380 Angstrom     dE/de3(zz)    -0.000008 eV/strain
       alpha       59.808222 Degrees      dE/de4(yz)     0.000000 eV/strain
       beta        59.808222 Degrees      dE/de5(xz)     0.000000 eV/strain
       gamma       59.808222 Degrees      dE/de6(xy)     0.000000 eV/strain
--------------------------------------------------------------------------------

  Primitive cell volume =           150.658743 Angs**3

  Density of cell =      7.588889 g/cm**3

  Non-primitive lattice parameters :

  a    =     5.964033  b   =     5.964033  c    =    14.672527
  alpha=    90.000000  beta=    90.000000  gamma=   120.000000

  Non-primitive cell volume =           451.976230 Angs**3


  Final internal derivatives :

--------------------------------------------------------------------------------
   No.  Atomic          a             b             c           Radius
        Label          (eV)          (eV)          (eV)        (eV/Angs)
--------------------------------------------------------------------------------
      1 Tb    c       0.000000      0.000000      0.000000      0.000000
      2 Ba    c       0.000000      0.000000      0.000000      0.000000
      3 O     c       0.000000      0.000000      0.000000      0.000000
      4 O     s       0.000000      0.000000      0.000000      0.000000
--------------------------------------------------------------------------------
  Maximum abs         0.000000      0.000000      0.000000      0.000000
--------------------------------------------------------------------------------


  Born effective charge tensors : 

-------------------------------------------------------------------------------
  Atom             x           y             z
-------------------------------------------------------------------------------
   1 Tb    x       0.0997     -0.0349      0.0000
           y       0.0349      0.0997      0.0000
           z       0.0000      0.0000      0.1090
-------------------------------------------------------------------------------
   2 Ba    x       2.5513      0.0000      0.0000
           y       0.0000      2.5513      0.0000
           z       0.0000      0.0000      2.5709
-------------------------------------------------------------------------------
   3 O     x      -1.0960      0.0000      0.0000
           y       0.0000     -0.6713      0.3165
           z       0.0000      0.3168     -0.8933
-------------------------------------------------------------------------------




  Elastic Constant Matrix: (Units=GPa)

-------------------------------------------------------------------------------
  Indices      1         2         3         4         5         6    
-------------------------------------------------------------------------------
       1     79.7638   24.9354   56.4631  -46.3654    0.0000    0.0000
       2     24.9354   79.7638   56.4631   46.3654    0.0000    0.0000
       3     56.4631   56.4631   38.6337    0.0000    0.0000    0.0000
       4    -46.3654   46.3654    0.0000   57.7082    0.0000    0.0000
       5      0.0000    0.0000    0.0000    0.0000   57.7082  -46.3654
       6      0.0000    0.0000    0.0000    0.0000  -46.3654   27.4142
-------------------------------------------------------------------------------


  Elastic Compliance Matrix: (Units=1/GPa)

-------------------------------------------------------------------------------
  Indices      1         2         3         4         5         6    
-------------------------------------------------------------------------------
       1   -0.033698  0.017126  0.024220 -0.040834  0.000000  0.000000
       2    0.017126 -0.033698  0.024220  0.040834  0.000000  0.000000
       3    0.024220  0.024220 -0.044911  0.000000  0.000000  0.000000
       4   -0.040834  0.040834  0.000000 -0.048288  0.000000  0.000000
       5    0.000000  0.000000  0.000000  0.000000 -0.048288 -0.081669
       6    0.000000  0.000000  0.000000  0.000000 -0.081669 -0.101649
-------------------------------------------------------------------------------

  Mechanical properties :

-------------------------------------------------------------------------------
  Convention :                    Reuss         Voigt         Hill
-------------------------------------------------------------------------------
  Bulk  Modulus (GPa)     =      53.12075      52.65385      52.88730
  Shear Modulus (GPa)     =     -11.48397      32.58609      10.55106
-------------------------------------------------------------------------------
  Velocity S-wave (km/s)  =      -1.23015       2.07218       1.17912
  Velocity P-wave (km/s)  =       2.23207       3.55858       2.97032
-------------------------------------------------------------------------------
  Compressibility (1/GPa) =    0.01882504
-------------------------------------------------------------------------------
  Stress axis :                     x             y             z
-------------------------------------------------------------------------------
  Youngs Moduli (GPa)     =     -29.67520     -29.67520     -22.26622
-------------------------------------------------------------------------------
  Poissons Ratio (x)      =                     0.50822       0.53929
  Poissons Ratio (y)      =       0.50822                     0.53929
  Poissons Ratio (z)      =       0.71873       0.71873
-------------------------------------------------------------------------------


  Piezoelectric Strain Matrix: (Units=C/m**2)

-------------------------------------------------------------------------------
  Indices      1         2         3         4         5         6    
-------------------------------------------------------------------------------
       x     0.00000   0.00000   0.00000   0.00000   0.00000   0.00000
       y     0.00000   0.00000   0.00000   0.00000   0.00000   0.00000
       z     0.00000   0.00000   0.00000   0.00000   0.00000   0.00000
-------------------------------------------------------------------------------


  Piezoelectric Stress Matrix: (Units=10**-11 C/N)

-------------------------------------------------------------------------------
  Indices      1         2         3         4         5         6    
-------------------------------------------------------------------------------
       x     0.00000   0.00000   0.00000   0.00000   0.00000   0.00000
       y     0.00000   0.00000   0.00000   0.00000   0.00000   0.00000
       z     0.00000   0.00000   0.00000   0.00000   0.00000   0.00000
-------------------------------------------------------------------------------


  Static dielectric constant tensor : 

-------------------------------------------------------------------------------
              x         y         z
-------------------------------------------------------------------------------
       x    -2.24445   0.00000   0.00000
       y     0.00000  -2.24445   0.00000
       z     0.00000   0.00000  -1.69466
--------------------------------------------------------------------------------

  High frequency dielectric constant tensor : 

-------------------------------------------------------------------------------
              x         y         z
-------------------------------------------------------------------------------
       x     1.58423   0.00000   0.00000
       y     0.00000   1.58423   0.00000
       z     0.00000   0.00000   1.58902
-------------------------------------------------------------------------------

  Static refractive indices : 

-------------------------------------------------------------------------------
    1 =   -1.49815      2 =   -1.49815      3 =   -1.30179
-------------------------------------------------------------------------------

  High frequency refractive indices : 

-------------------------------------------------------------------------------
    1 =    1.25866      2 =    1.25866      3 =    1.26056
-------------------------------------------------------------------------------


  Time to end of optimisation =       0.0472 seconds


  Peak dynamic memory used =       0.57 MB 


  Timing analysis for GULP :

--------------------------------------------------------------------------------
  Task / Subroutine                                          Time (Seconds)
--------------------------------------------------------------------------------
  Calculation of reciprocal space energy and derivatives          0.0009
  Calculation of reciprocal space energy using symmetry           0.0013
  Calculation of real space energy and derivatives                0.0101
  Calculation of real space energy using symmetry                 0.0314
  Symmetry generation of equivalent positions                     0.0003
--------------------------------------------------------------------------------
  Total CPU time                                                  0.0473
--------------------------------------------------------------------------------


  CIF file written as perov.cif                                               


  Job Finished at 09:26.31  6th April      2017                               

