********************************************************************************
*                       GENERAL UTILITY LATTICE PROGRAM                        *
*                                 Julian Gale                                  *
*                      Nanochemistry Research Institute                        *
*                           Department of Chemistry                            *
*                    Curtin University, Western Australia                      *
********************************************************************************
* Version = 4.3.2 * Last modified =  3rd March 2015                            *
********************************************************************************
*  optimise     - perform optimisation run                                     *
*  cell_only    - only optimise unit cell                                      *
*  property     - calculate properties for final geometry                      *
********************************************************************************

  Job Started  at 09:26.35  6th April      2017                               

  Number of CPUs =     1


  Total number of configurations input =   1

********************************************************************************
*  Input for Configuration =   1                                               *
********************************************************************************

  Formula = Tb2Ba2O6                                                    

  Number of irreducible atoms/shells =       4


  Total number atoms/shells =      16

  Dimensionality = 3               :  Bulk   


  Symmetry :

  Crystal family                   :  Hexagonal   
  Crystal class  (Groth - 1921)    :  Ditrigonal Scalenohedral             

  Space group (centrosymmetric)    :  R -3 C          

  Patterson group                  :  R -3 m   

  Cartesian lattice vectors (Angstroms) :

        3.039900    1.755087    4.922700
       -3.039900    1.755087    4.922700
        0.000000   -3.510174    4.922700

  Primitive cell parameters :            Full cell parameters :

  a =   6.0460    alpha =  60.3700       a =   6.0798    alpha =  90.0000
  b =   6.0460    beta  =  60.3700       b =   6.0798    beta  =  90.0000
  c =   6.0460    gamma =  60.3700       c =  14.7681    gamma = 120.0000

  Initial volumes (Angstroms**3):

  Primitive cell =         157.584170    Full cell =         472.752509

  Temperature of configuration =  0.000     K 

  Pressure of configuration =         0.000 GPa 

  Fractional coordinates of asymmetric unit :

--------------------------------------------------------------------------------
   No.  Atomic       x           y          z         Charge      Occupancy
        Label      (Frac)      (Frac)     (Frac)        (e)         (Frac)  
--------------------------------------------------------------------------------
      1 Tb    c    0.000000    0.000000    0.000000     0.80000    1.000000    
      2 Ba    c    0.000000    0.000000    0.250000     1.80000    1.000000    
      3 O     c    0.462400    0.000000    0.250000     0.37800    1.000000    
      4 O     s    0.462400    0.000000    0.250000    -1.24467    1.000000    
--------------------------------------------------------------------------------


  Constraints : 

--------------------------------------------------------------------------------
  Constraint no.      Unconstrained     Constrained    Coefficient    Offset
                         Variable         Variable
--------------------------------------------------------------------------------
           1              Strain 1        Strain 2       1.00000      0.0000
--------------------------------------------------------------------------------


********************************************************************************
*  General input information                                                   *
********************************************************************************

  Species output for all configurations : 

--------------------------------------------------------------------------------
  Species    Type    Atomic    Atomic    Charge       Radii (Angs)     Library
                     Number     Mass       (e)     Cova   Ionic  VDW   Symbol
--------------------------------------------------------------------------------
    Tb       Core       65     158.93   0.800000   1.760  0.000  2.630          
    Ba       Core       56     137.33   1.800000   1.340  0.000  2.000          
    O        Core        8      16.00   0.378000   0.730  0.000  1.360          
    O        Shell       8       0.00  -1.244667   0.730  0.000  1.360          
--------------------------------------------------------------------------------


  Lattice summation method               =    Ewald          (3-D)
                                         =    Parry          (2-D)
                                         =    Saunders et al (1-D)
  Accuracy factor for lattice sums       =   12.000


  Time limit = Infinity

  Maximum range for interatomic potentials =    100000.000000 Angstroms

  General interatomic potentials :

--------------------------------------------------------------------------------
Atom  Types   Potential         A         B         C         D     Cutoffs(Ang)
  1     2                                                            Min    Max 
--------------------------------------------------------------------------------
Ba   c Ba   c Buckingham    0.219E+04 0.192      0.00      0.00     0.000 10.000
Tb   c O    s Buckingham    0.148E+04 0.266      0.00      0.00     0.000 10.000
O    s O    s Buckingham     912.     0.271      13.8      0.00     0.000 10.000
Ba   c O    s Buckingham    0.352E+04 0.267      0.00      0.00     0.000 10.000
O    c O    s Spring (c-s)   19.9      0.00      0.00      0.00     0.000  0.800
--------------------------------------------------------------------------------

********************************************************************************
*  Output for configuration   1                                                *
********************************************************************************


  Components of energy : 

--------------------------------------------------------------------------------
  Interatomic potentials     =           6.38527986 eV
  Monopole - monopole (real) =         -15.52464656 eV
  Monopole - monopole (recip)=         -40.14039142 eV
  Monopole - monopole (total)=         -55.66503799 eV
--------------------------------------------------------------------------------
  Total lattice energy : 
    Primitive unit cell      =         -49.27975812 eV
    Non-primitive unit cell  =        -147.83927437 eV
--------------------------------------------------------------------------------
  Total lattice energy (in kJmol-1): 
    Primitive unit cell      =           -4754.7433 kJ/(mole unit cells)
    Non-primitive unit cell  =          -14264.2300 kJ/(mole unit cells)
--------------------------------------------------------------------------------


  Number of variables =        2

  Maximum number of calculations  =          1000
  Maximum Hessian update interval =            10
  Maximum step size               =   1.000000000
  Maximum parameter tolerance     =   0.000010000
  Maximum function  tolerance     =   0.000010000
  Maximum gradient  tolerance     =   0.001000000
  Maximum gradient  component     =   0.010000000

  Symmetry constrained optimisation

  Symmetry used for second derivatives

  Cell parameters to be optimised using strains

  Newton-Raphson optimiser to be used

  BFGS hessian update to be used

  Start of bulk optimisation :

  Cycle:      0 Energy:       -49.279758  Gnorm:      0.543889  CPU:    0.007
  ** Hessian calculated **
  Cycle:      1 Energy:       -49.282422  Gnorm:      0.001472  CPU:    0.018


  **** Optimisation achieved ****


  Final energy =     -49.28242230 eV
  Final Gnorm  =       0.00000021

  Components of energy : 

--------------------------------------------------------------------------------
  Interatomic potentials     =           6.17875240 eV
  Monopole - monopole (real) =         -15.46881563 eV
  Monopole - monopole (recip)=         -39.99235907 eV
  Monopole - monopole (total)=         -55.46117469 eV
--------------------------------------------------------------------------------
  Total lattice energy : 
    Primitive unit cell      =         -49.28242230 eV
    Non-primitive unit cell  =        -147.84726689 eV
--------------------------------------------------------------------------------
  Total lattice energy (in kJmol-1): 
    Primitive unit cell      =           -4755.0004 kJ/(mole unit cells)
    Non-primitive unit cell  =          -14265.0012 kJ/(mole unit cells)
--------------------------------------------------------------------------------

  Final asymmetric unit coordinates :

--------------------------------------------------------------------------------
   No.  Atomic        x           y           z         Radius
        Label       (Frac)      (Frac)      (Frac)       (Angs) 
--------------------------------------------------------------------------------
     1  Tb    c     0.000000    0.000000    0.000000    0.000000
     2  Ba    c     0.000000    0.000000    0.250000    0.000000
     3  O     c     0.462400    0.000000    0.250000    0.000000
     4  O     s     0.462400    0.000000    0.250000    0.000000
--------------------------------------------------------------------------------

  Final Cartesian lattice vectors (Angstroms) :

        3.049406    1.760575    4.946592
       -3.049406    1.760575    4.946592
        0.000000   -3.521150    4.946592


  Final cell parameters and derivatives :

--------------------------------------------------------------------------------
       a            6.071842 Angstrom     dE/de1(xx)     0.000000 eV/strain
       b            6.071842 Angstrom     dE/de2(yy)     0.000000 eV/strain
       c            6.071842 Angstrom     dE/de3(zz)     0.000000 eV/strain
       alpha       60.294075 Degrees      dE/de4(yz)     0.000000 eV/strain
       beta        60.294075 Degrees      dE/de5(xz)     0.000000 eV/strain
       gamma       60.294075 Degrees      dE/de6(xy)     0.000000 eV/strain
--------------------------------------------------------------------------------

  Primitive cell volume =           159.340829 Angs**3

  Density of cell =      7.175390 g/cm**3

  Non-primitive lattice parameters :

  a    =     6.098811  b   =     6.098811  c    =    14.839775
  alpha=    90.000000  beta=    90.000000  gamma=   120.000000

  Non-primitive cell volume =           478.022487 Angs**3


  Final internal derivatives :

--------------------------------------------------------------------------------
   No.  Atomic          a             b             c           Radius
        Label          (eV)          (eV)          (eV)        (eV/Angs)
--------------------------------------------------------------------------------
      1 Tb    c       0.000000      0.000000      0.000000      0.000000
      2 Ba    c       0.000000      0.000000      0.000000      0.000000
      3 O     c       0.000000      0.000000      0.000000      0.000000
      4 O     s       0.000000      0.000000      0.000000      0.000000
--------------------------------------------------------------------------------
  Maximum abs         0.000000      0.000000      0.000000      0.000000
--------------------------------------------------------------------------------


  Born effective charge tensors : 

-------------------------------------------------------------------------------
  Atom             x           y             z
-------------------------------------------------------------------------------
   1 Tb    x       0.4174     -0.0115      0.0000
           y       0.0115      0.4174      0.0000
           z       0.0000      0.0000      0.4290
-------------------------------------------------------------------------------
   2 Ba    x       2.0266      0.0000      0.0000
           y       0.0000      2.0266      0.0000
           z       0.0000      0.0000      2.0483
-------------------------------------------------------------------------------
   3 O     x      -0.9546      0.0000      0.0000
           y       0.0000     -0.6747      0.2106
           z       0.0000      0.2128     -0.8258
-------------------------------------------------------------------------------




  Elastic Constant Matrix: (Units=GPa)

-------------------------------------------------------------------------------
  Indices      1         2         3         4         5         6    
-------------------------------------------------------------------------------
       1     72.6690   21.7976   39.6000  -26.7255    0.0000    0.0000
       2     21.7976   72.6690   39.6000   26.7255    0.0000    0.0000
       3     39.6000   39.6000   46.6522    0.0000    0.0000    0.0000
       4    -26.7255   26.7255    0.0000   40.7783    0.0000    0.0000
       5      0.0000    0.0000    0.0000    0.0000   40.7783  -26.7255
       6      0.0000    0.0000    0.0000    0.0000  -26.7255   25.4357
-------------------------------------------------------------------------------


  Elastic Compliance Matrix: (Units=1/GPa)

-------------------------------------------------------------------------------
  Indices      1         2         3         4         5         6    
-------------------------------------------------------------------------------
       1    0.049921 -0.013209 -0.031163  0.041374  0.000000  0.000000
       2   -0.013209  0.049921 -0.031163 -0.041374  0.000000  0.000000
       3   -0.031163 -0.031163  0.074339  0.000000  0.000000  0.000000
       4    0.041374 -0.041374  0.000000  0.078755  0.000000  0.000000
       5    0.000000  0.000000  0.000000  0.000000  0.078755  0.082748
       6    0.000000  0.000000  0.000000  0.000000  0.082748  0.126259
-------------------------------------------------------------------------------

  Mechanical properties :

-------------------------------------------------------------------------------
  Convention :                    Reuss         Voigt         Hill
-------------------------------------------------------------------------------
  Bulk  Modulus (GPa)     =      43.26564      43.77618      43.52091
  Shear Modulus (GPa)     =       8.10736      27.46465      17.78601
-------------------------------------------------------------------------------
  Velocity S-wave (km/s)  =       1.06296       1.95643       1.57441
  Velocity P-wave (km/s)  =       2.74522       3.34729       3.06110
-------------------------------------------------------------------------------
  Compressibility (1/GPa) =    0.02311303
-------------------------------------------------------------------------------
  Stress axis :                     x             y             z
-------------------------------------------------------------------------------
  Youngs Moduli (GPa)     =      20.03165      20.03165      13.45183
-------------------------------------------------------------------------------
  Poissons Ratio (x)      =                     0.26459       0.41920
  Poissons Ratio (y)      =       0.26459                     0.41920
  Poissons Ratio (z)      =       0.62424       0.62424
-------------------------------------------------------------------------------


  Piezoelectric Strain Matrix: (Units=C/m**2)

-------------------------------------------------------------------------------
  Indices      1         2         3         4         5         6    
-------------------------------------------------------------------------------
       x     0.00000   0.00000   0.00000   0.00000   0.00000   0.00000
       y     0.00000   0.00000   0.00000   0.00000   0.00000   0.00000
       z     0.00000   0.00000   0.00000   0.00000   0.00000   0.00000
-------------------------------------------------------------------------------


  Piezoelectric Stress Matrix: (Units=10**-11 C/N)

-------------------------------------------------------------------------------
  Indices      1         2         3         4         5         6    
-------------------------------------------------------------------------------
       x     0.00000   0.00000   0.00000   0.00000   0.00000   0.00000
       y     0.00000   0.00000   0.00000   0.00000   0.00000   0.00000
       z     0.00000   0.00000   0.00000   0.00000   0.00000   0.00000
-------------------------------------------------------------------------------


  Static dielectric constant tensor : 

-------------------------------------------------------------------------------
              x         y         z
-------------------------------------------------------------------------------
       x    -4.84636   0.00000   0.00000
       y     0.00000  -4.84636   0.00000
       z     0.00000   0.00000  -3.22569
--------------------------------------------------------------------------------

  High frequency dielectric constant tensor : 

-------------------------------------------------------------------------------
              x         y         z
-------------------------------------------------------------------------------
       x     1.53613   0.00000   0.00000
       y     0.00000   1.53613   0.00000
       z     0.00000   0.00000   1.54185
-------------------------------------------------------------------------------

  Static refractive indices : 

-------------------------------------------------------------------------------
    1 =   -2.20145      2 =   -2.20145      3 =   -1.79602
-------------------------------------------------------------------------------

  High frequency refractive indices : 

-------------------------------------------------------------------------------
    1 =    1.23941      2 =    1.23941      3 =    1.24171
-------------------------------------------------------------------------------


  Time to end of optimisation =       0.0383 seconds


  Peak dynamic memory used =       0.57 MB 


  Timing analysis for GULP :

--------------------------------------------------------------------------------
  Task / Subroutine                                          Time (Seconds)
--------------------------------------------------------------------------------
  Calculation of reciprocal space energy and derivatives          0.0008
  Calculation of reciprocal space energy using symmetry           0.0009
  Calculation of real space energy and derivatives                0.0102
  Calculation of real space energy using symmetry                 0.0232
  Symmetry generation of equivalent positions                     0.0002
--------------------------------------------------------------------------------
  Total CPU time                                                  0.0383
--------------------------------------------------------------------------------


  CIF file written as perov.cif                                               


  Job Finished at 09:26.35  6th April      2017                               

