********************************************************************************
*                       GENERAL UTILITY LATTICE PROGRAM                        *
*                                 Julian Gale                                  *
*                      Nanochemistry Research Institute                        *
*                           Department of Chemistry                            *
*                    Curtin University, Western Australia                      *
********************************************************************************
* Version = 4.3.2 * Last modified =  3rd March 2015                            *
********************************************************************************
*  optimise     - perform optimisation run                                     *
*  cell_only    - only optimise unit cell                                      *
*  property     - calculate properties for final geometry                      *
********************************************************************************

  Job Started  at 09:26.35  6th April      2017                               

  Number of CPUs =     1


  Total number of configurations input =   1

********************************************************************************
*  Input for Configuration =   1                                               *
********************************************************************************

  Formula = Tb2Ba2O6                                                    

  Number of irreducible atoms/shells =       4


  Total number atoms/shells =      16

  Dimensionality = 3               :  Bulk   


  Symmetry :

  Crystal family                   :  Hexagonal   
  Crystal class  (Groth - 1921)    :  Ditrigonal Scalenohedral             

  Space group (centrosymmetric)    :  R -3 C          

  Patterson group                  :  R -3 m   

  Cartesian lattice vectors (Angstroms) :

        3.039900    1.755087    4.922700
       -3.039900    1.755087    4.922700
        0.000000   -3.510174    4.922700

  Primitive cell parameters :            Full cell parameters :

  a =   6.0460    alpha =  60.3700       a =   6.0798    alpha =  90.0000
  b =   6.0460    beta  =  60.3700       b =   6.0798    beta  =  90.0000
  c =   6.0460    gamma =  60.3700       c =  14.7681    gamma = 120.0000

  Initial volumes (Angstroms**3):

  Primitive cell =         157.584170    Full cell =         472.752509

  Temperature of configuration =  0.000     K 

  Pressure of configuration =         0.000 GPa 

  Fractional coordinates of asymmetric unit :

--------------------------------------------------------------------------------
   No.  Atomic       x           y          z         Charge      Occupancy
        Label      (Frac)      (Frac)     (Frac)        (e)         (Frac)  
--------------------------------------------------------------------------------
      1 Tb    c    0.000000    0.000000    0.000000     0.80000    1.000000    
      2 Ba    c    0.000000    0.000000    0.250000     1.50000    1.000000    
      3 O     c    0.462400    0.000000    0.250000     0.37800    1.000000    
      4 O     s    0.462400    0.000000    0.250000    -1.14467    1.000000    
--------------------------------------------------------------------------------


  Constraints : 

--------------------------------------------------------------------------------
  Constraint no.      Unconstrained     Constrained    Coefficient    Offset
                         Variable         Variable
--------------------------------------------------------------------------------
           1              Strain 1        Strain 2       1.00000      0.0000
--------------------------------------------------------------------------------


********************************************************************************
*  General input information                                                   *
********************************************************************************

  Species output for all configurations : 

--------------------------------------------------------------------------------
  Species    Type    Atomic    Atomic    Charge       Radii (Angs)     Library
                     Number     Mass       (e)     Cova   Ionic  VDW   Symbol
--------------------------------------------------------------------------------
    Tb       Core       65     158.93   0.800000   1.760  0.000  2.630          
    Ba       Core       56     137.33   1.500000   1.340  0.000  2.000          
    O        Core        8      16.00   0.378000   0.730  0.000  1.360          
    O        Shell       8       0.00  -1.144667   0.730  0.000  1.360          
--------------------------------------------------------------------------------


  Lattice summation method               =    Ewald          (3-D)
                                         =    Parry          (2-D)
                                         =    Saunders et al (1-D)
  Accuracy factor for lattice sums       =   12.000


  Time limit = Infinity

  Maximum range for interatomic potentials =    100000.000000 Angstroms

  General interatomic potentials :

--------------------------------------------------------------------------------
Atom  Types   Potential         A         B         C         D     Cutoffs(Ang)
  1     2                                                            Min    Max 
--------------------------------------------------------------------------------
Ba   c Ba   c Buckingham    0.219E+04 0.192      0.00      0.00     0.000 10.000
Tb   c O    s Buckingham    0.148E+04 0.266      0.00      0.00     0.000 10.000
O    s O    s Buckingham     912.     0.271      13.8      0.00     0.000 10.000
Ba   c O    s Buckingham    0.352E+04 0.267      0.00      0.00     0.000 10.000
O    c O    s Spring (c-s)   16.8      0.00      0.00      0.00     0.000  0.800
--------------------------------------------------------------------------------

********************************************************************************
*  Output for configuration   1                                                *
********************************************************************************


  Components of energy : 

--------------------------------------------------------------------------------
  Interatomic potentials     =           6.38527986 eV
  Monopole - monopole (real) =         -12.63126570 eV
  Monopole - monopole (recip)=         -30.58409197 eV
  Monopole - monopole (total)=         -43.21535767 eV
--------------------------------------------------------------------------------
  Total lattice energy : 
    Primitive unit cell      =         -36.83007781 eV
    Non-primitive unit cell  =        -110.49023342 eV
--------------------------------------------------------------------------------
  Total lattice energy (in kJmol-1): 
    Primitive unit cell      =           -3553.5395 kJ/(mole unit cells)
    Non-primitive unit cell  =          -10660.6185 kJ/(mole unit cells)
--------------------------------------------------------------------------------


  Number of variables =        2

  Maximum number of calculations  =          1000
  Maximum Hessian update interval =            10
  Maximum step size               =   1.000000000
  Maximum parameter tolerance     =   0.000010000
  Maximum function  tolerance     =   0.000010000
  Maximum gradient  tolerance     =   0.001000000
  Maximum gradient  component     =   0.010000000

  Symmetry constrained optimisation

  Symmetry used for second derivatives

  Cell parameters to be optimised using strains

  Newton-Raphson optimiser to be used

  BFGS hessian update to be used

  Start of bulk optimisation :

  Cycle:      0 Energy:       -36.830078  Gnorm:      5.223366  CPU:    0.007
  ** Hessian calculated **
  Cycle:      1 Energy:       -37.085985  Gnorm:      0.181020  CPU:    0.018
  Cycle:      2 Energy:       -37.086363  Gnorm:      0.000333  CPU:    0.026


  **** Optimisation achieved ****


  Final energy =     -37.08636323 eV
  Final Gnorm  =       0.00000014

  Components of energy : 

--------------------------------------------------------------------------------
  Interatomic potentials     =           4.47708161 eV
  Monopole - monopole (real) =         -12.14967053 eV
  Monopole - monopole (recip)=         -29.41377431 eV
  Monopole - monopole (total)=         -41.56344484 eV
--------------------------------------------------------------------------------
  Total lattice energy : 
    Primitive unit cell      =         -37.08636323 eV
    Non-primitive unit cell  =        -111.25908970 eV
--------------------------------------------------------------------------------
  Total lattice energy (in kJmol-1): 
    Primitive unit cell      =           -3578.2671 kJ/(mole unit cells)
    Non-primitive unit cell  =          -10734.8014 kJ/(mole unit cells)
--------------------------------------------------------------------------------

  Final asymmetric unit coordinates :

--------------------------------------------------------------------------------
   No.  Atomic        x           y           z         Radius
        Label       (Frac)      (Frac)      (Frac)       (Angs) 
--------------------------------------------------------------------------------
     1  Tb    c     0.000000    0.000000    0.000000    0.000000
     2  Ba    c     0.000000    0.000000    0.250000    0.000000
     3  O     c     0.462400    0.000000    0.250000    0.000000
     4  O     s     0.462400    0.000000    0.250000    0.000000
--------------------------------------------------------------------------------

  Final Cartesian lattice vectors (Angstroms) :

        3.157905    1.823217    5.128144
       -3.157905    1.823217    5.128144
        0.000000   -3.646434    5.128144


  Final cell parameters and derivatives :

--------------------------------------------------------------------------------
       a            6.292404 Angstrom     dE/de1(xx)     0.000000 eV/strain
       b            6.292404 Angstrom     dE/de2(yy)     0.000000 eV/strain
       c            6.292404 Angstrom     dE/de3(zz)     0.000000 eV/strain
       alpha       60.246244 Degrees      dE/de4(yz)     0.000000 eV/strain
       beta        60.246244 Degrees      dE/de5(xz)     0.000000 eV/strain
       gamma       60.246244 Degrees      dE/de6(xy)     0.000000 eV/strain
--------------------------------------------------------------------------------

  Primitive cell volume =           177.153141 Angs**3

  Density of cell =      6.453922 g/cm**3

  Non-primitive lattice parameters :

  a    =     6.315809  b   =     6.315809  c    =    15.384432
  alpha=    90.000000  beta=    90.000000  gamma=   120.000000

  Non-primitive cell volume =           531.459422 Angs**3


  Final internal derivatives :

--------------------------------------------------------------------------------
   No.  Atomic          a             b             c           Radius
        Label          (eV)          (eV)          (eV)        (eV/Angs)
--------------------------------------------------------------------------------
      1 Tb    c       0.000000      0.000000      0.000000      0.000000
      2 Ba    c       0.000000      0.000000      0.000000      0.000000
      3 O     c       0.000000      0.000000      0.000000      0.000000
      4 O     s       0.000000      0.000000      0.000000      0.000000
--------------------------------------------------------------------------------
  Maximum abs         0.000000      0.000000      0.000000      0.000000
--------------------------------------------------------------------------------


  Born effective charge tensors : 

-------------------------------------------------------------------------------
  Atom             x           y             z
-------------------------------------------------------------------------------
   1 Tb    x       0.4800     -0.0060      0.0000
           y       0.0060      0.4800      0.0000
           z       0.0000      0.0000      0.4873
-------------------------------------------------------------------------------
   2 Ba    x       1.6638      0.0000      0.0000
           y       0.0000      1.6638      0.0000
           z       0.0000      0.0000      1.6802
-------------------------------------------------------------------------------
   3 O     x      -0.8203      0.0000      0.0000
           y       0.0000     -0.6090      0.1590
           z       0.0000      0.1603     -0.7225
-------------------------------------------------------------------------------




  Elastic Constant Matrix: (Units=GPa)

-------------------------------------------------------------------------------
  Indices      1         2         3         4         5         6    
-------------------------------------------------------------------------------
       1     52.2180   15.0714   26.7556  -17.2127    0.0000    0.0000
       2     15.0714   52.2180   26.7556   17.2127    0.0000    0.0000
       3     26.7556   26.7556   34.7719    0.0000    0.0000    0.0000
       4    -17.2127   17.2127    0.0000   27.6530    0.0000    0.0000
       5      0.0000    0.0000    0.0000    0.0000   27.6530  -17.2127
       6      0.0000    0.0000    0.0000    0.0000  -17.2127   18.5733
-------------------------------------------------------------------------------


  Elastic Compliance Matrix: (Units=1/GPa)

-------------------------------------------------------------------------------
  Indices      1         2         3         4         5         6    
-------------------------------------------------------------------------------
       1    0.050956 -0.012664 -0.029465  0.039600  0.000000  0.000000
       2   -0.012664  0.050956 -0.029465 -0.039600  0.000000  0.000000
       3   -0.029465 -0.029465  0.074102  0.000000  0.000000  0.000000
       4    0.039600 -0.039600  0.000000  0.085461  0.000000  0.000000
       5    0.000000  0.000000  0.000000  0.000000  0.085461  0.079201
       6    0.000000  0.000000  0.000000  0.000000  0.079201  0.127239
-------------------------------------------------------------------------------

  Mechanical properties :

-------------------------------------------------------------------------------
  Convention :                    Reuss         Voigt         Hill
-------------------------------------------------------------------------------
  Bulk  Modulus (GPa)     =      30.46064      30.70811      30.58438
  Shear Modulus (GPa)     =       7.95791      19.48421      13.72106
-------------------------------------------------------------------------------
  Velocity S-wave (km/s)  =       1.11042       1.73752       1.45808
  Velocity P-wave (km/s)  =       2.52265       2.96367       2.75201
-------------------------------------------------------------------------------
  Compressibility (1/GPa) =    0.03282925
-------------------------------------------------------------------------------
  Stress axis :                     x             y             z
-------------------------------------------------------------------------------
  Youngs Moduli (GPa)     =      19.62471      19.62471      13.49484
-------------------------------------------------------------------------------
  Poissons Ratio (x)      =                     0.24852       0.39762
  Poissons Ratio (y)      =       0.24852                     0.39762
  Poissons Ratio (z)      =       0.57823       0.57823
-------------------------------------------------------------------------------


  Piezoelectric Strain Matrix: (Units=C/m**2)

-------------------------------------------------------------------------------
  Indices      1         2         3         4         5         6    
-------------------------------------------------------------------------------
       x     0.00000   0.00000   0.00000   0.00000   0.00000   0.00000
       y     0.00000   0.00000   0.00000   0.00000   0.00000   0.00000
       z     0.00000   0.00000   0.00000   0.00000   0.00000   0.00000
-------------------------------------------------------------------------------


  Piezoelectric Stress Matrix: (Units=10**-11 C/N)

-------------------------------------------------------------------------------
  Indices      1         2         3         4         5         6    
-------------------------------------------------------------------------------
       x     0.00000   0.00000   0.00000   0.00000   0.00000   0.00000
       y     0.00000   0.00000   0.00000   0.00000   0.00000   0.00000
       z     0.00000   0.00000   0.00000   0.00000   0.00000   0.00000
-------------------------------------------------------------------------------


  Static dielectric constant tensor : 

-------------------------------------------------------------------------------
              x         y         z
-------------------------------------------------------------------------------
       x    -5.95140   0.00000   0.00000
       y     0.00000  -5.95140   0.00000
       z     0.00000   0.00000  -3.60234
--------------------------------------------------------------------------------

  High frequency dielectric constant tensor : 

-------------------------------------------------------------------------------
              x         y         z
-------------------------------------------------------------------------------
       x     1.48014   0.00000   0.00000
       y     0.00000   1.48014   0.00000
       z     0.00000   0.00000   1.48423
-------------------------------------------------------------------------------

  Static refractive indices : 

-------------------------------------------------------------------------------
    1 =   -2.43955      2 =   -2.43955      3 =   -1.89798
-------------------------------------------------------------------------------

  High frequency refractive indices : 

-------------------------------------------------------------------------------
    1 =    1.21661      2 =    1.21661      3 =    1.21829
-------------------------------------------------------------------------------


  Time to end of optimisation =       0.0461 seconds


  Peak dynamic memory used =       0.57 MB 


  Timing analysis for GULP :

--------------------------------------------------------------------------------
  Task / Subroutine                                          Time (Seconds)
--------------------------------------------------------------------------------
  Calculation of reciprocal space energy and derivatives          0.0009
  Calculation of reciprocal space energy using symmetry           0.0013
  Calculation of real space energy and derivatives                0.0101
  Calculation of real space energy using symmetry                 0.0301
  Symmetry generation of equivalent positions                     0.0003
--------------------------------------------------------------------------------
  Total CPU time                                                  0.0462
--------------------------------------------------------------------------------


  CIF file written as perov.cif                                               


  Job Finished at 09:26.35  6th April      2017                               

