********************************************************************************
*                       GENERAL UTILITY LATTICE PROGRAM                        *
*                                 Julian Gale                                  *
*                      Nanochemistry Research Institute                        *
*                           Department of Chemistry                            *
*                    Curtin University, Western Australia                      *
********************************************************************************
* Version = 4.3.2 * Last modified =  3rd March 2015                            *
********************************************************************************
*  optimise     - perform optimisation run                                     *
*  cell_only    - only optimise unit cell                                      *
*  property     - calculate properties for final geometry                      *
********************************************************************************

  Job Started  at 09:26.30  6th April      2017                               

  Number of CPUs =     1


  Total number of configurations input =   1

********************************************************************************
*  Input for Configuration =   1                                               *
********************************************************************************

  Formula = Tb2Ba2O6                                                    

  Number of irreducible atoms/shells =       4


  Total number atoms/shells =      16

  Dimensionality = 3               :  Bulk   


  Symmetry :

  Crystal family                   :  Hexagonal   
  Crystal class  (Groth - 1921)    :  Ditrigonal Scalenohedral             

  Space group (centrosymmetric)    :  R -3 C          

  Patterson group                  :  R -3 m   

  Cartesian lattice vectors (Angstroms) :

        3.039900    1.755087    4.922700
       -3.039900    1.755087    4.922700
        0.000000   -3.510174    4.922700

  Primitive cell parameters :            Full cell parameters :

  a =   6.0460    alpha =  60.3700       a =   6.0798    alpha =  90.0000
  b =   6.0460    beta  =  60.3700       b =   6.0798    beta  =  90.0000
  c =   6.0460    gamma =  60.3700       c =  14.7681    gamma = 120.0000

  Initial volumes (Angstroms**3):

  Primitive cell =         157.584170    Full cell =         472.752509

  Temperature of configuration =  0.000     K 

  Pressure of configuration =         0.000 GPa 

  Fractional coordinates of asymmetric unit :

--------------------------------------------------------------------------------
   No.  Atomic       x           y          z         Charge      Occupancy
        Label      (Frac)      (Frac)     (Frac)        (e)         (Frac)  
--------------------------------------------------------------------------------
      1 Tb    c    0.000000    0.000000    0.000000     0.50000    1.000000    
      2 Ba    c    0.000000    0.000000    0.250000     2.10000    1.000000    
      3 O     c    0.462400    0.000000    0.250000     0.37800    1.000000    
      4 O     s    0.462400    0.000000    0.250000    -1.24467    1.000000    
--------------------------------------------------------------------------------


  Constraints : 

--------------------------------------------------------------------------------
  Constraint no.      Unconstrained     Constrained    Coefficient    Offset
                         Variable         Variable
--------------------------------------------------------------------------------
           1              Strain 1        Strain 2       1.00000      0.0000
--------------------------------------------------------------------------------


********************************************************************************
*  General input information                                                   *
********************************************************************************

  Species output for all configurations : 

--------------------------------------------------------------------------------
  Species    Type    Atomic    Atomic    Charge       Radii (Angs)     Library
                     Number     Mass       (e)     Cova   Ionic  VDW   Symbol
--------------------------------------------------------------------------------
    Tb       Core       65     158.93   0.500000   1.760  0.000  2.630          
    Ba       Core       56     137.33   2.100000   1.340  0.000  2.000          
    O        Core        8      16.00   0.378000   0.730  0.000  1.360          
    O        Shell       8       0.00  -1.244667   0.730  0.000  1.360          
--------------------------------------------------------------------------------


  Lattice summation method               =    Ewald          (3-D)
                                         =    Parry          (2-D)
                                         =    Saunders et al (1-D)
  Accuracy factor for lattice sums       =   12.000


  Time limit = Infinity

  Maximum range for interatomic potentials =    100000.000000 Angstroms

  General interatomic potentials :

--------------------------------------------------------------------------------
Atom  Types   Potential         A         B         C         D     Cutoffs(Ang)
  1     2                                                            Min    Max 
--------------------------------------------------------------------------------
Ba   c Ba   c Buckingham    0.219E+04 0.192      0.00      0.00     0.000 10.000
Tb   c O    s Buckingham    0.148E+04 0.266      0.00      0.00     0.000 10.000
O    s O    s Buckingham     912.     0.271      13.8      0.00     0.000 10.000
Ba   c O    s Buckingham    0.352E+04 0.267      0.00      0.00     0.000 10.000
O    c O    s Spring (c-s)   19.9      0.00      0.00      0.00     0.000  0.800
--------------------------------------------------------------------------------

********************************************************************************
*  Output for configuration   1                                                *
********************************************************************************


  Components of energy : 

--------------------------------------------------------------------------------
  Interatomic potentials     =           6.38527986 eV
  Monopole - monopole (real) =         -13.91530842 eV
  Monopole - monopole (recip)=         -44.67590364 eV
  Monopole - monopole (total)=         -58.59121206 eV
--------------------------------------------------------------------------------
  Total lattice energy : 
    Primitive unit cell      =         -52.20593219 eV
    Non-primitive unit cell  =        -156.61779658 eV
--------------------------------------------------------------------------------
  Total lattice energy (in kJmol-1): 
    Primitive unit cell      =           -5037.0744 kJ/(mole unit cells)
    Non-primitive unit cell  =          -15111.2232 kJ/(mole unit cells)
--------------------------------------------------------------------------------


  Number of variables =        2

  Maximum number of calculations  =          1000
  Maximum Hessian update interval =            10
  Maximum step size               =   1.000000000
  Maximum parameter tolerance     =   0.000010000
  Maximum function  tolerance     =   0.000010000
  Maximum gradient  tolerance     =   0.001000000
  Maximum gradient  component     =   0.010000000

  Symmetry constrained optimisation

  Symmetry used for second derivatives

  Cell parameters to be optimised using strains

  Newton-Raphson optimiser to be used

  BFGS hessian update to be used

  Start of bulk optimisation :

  Cycle:      0 Energy:       -52.205932  Gnorm:      0.533894  CPU:    0.007
  ** Hessian calculated **
  Cycle:      1 Energy:       -52.208047  Gnorm:      0.013059  CPU:    0.017
  Cycle:      2 Energy:       -52.208047  Gnorm:      0.003971  CPU:    0.026
  ** Hessian calculated **
  Cycle:      3 Energy:       -52.208047  Gnorm:      0.002242  CPU:    0.037
  Cycle:      4 Energy:       -52.208047  Gnorm:      0.003086  CPU:    0.046
  ** Hessian calculated **
  Cycle:      5 Energy:       -52.208048  Gnorm:      0.002500  CPU:    0.058
  Cycle:      6 Energy:       -52.208048  Gnorm:      0.002651  CPU:    0.066
  ** Hessian calculated **
  Cycle:      7 Energy:       -52.208048  Gnorm:      0.008150  CPU:    0.078
  Cycle:      8 Energy:       -52.208049  Gnorm:      0.011897  CPU:    0.086
  ** Hessian calculated **
  Cycle:      9 Energy:       -52.208051  Gnorm:      0.005483  CPU:    0.098
  Cycle:     10 Energy:       -52.208052  Gnorm:      0.006327  CPU:    0.106
  ** Hessian calculated **
  Cycle:     11 Energy:       -52.208055  Gnorm:      0.020817  CPU:    0.118
  Cycle:     12 Energy:       -52.208061  Gnorm:      0.027753  CPU:    0.126
  ** Hessian calculated **
  Cycle:     13 Energy:       -52.208069  Gnorm:      0.013034  CPU:    0.137
  Cycle:     14 Energy:       -52.208076  Gnorm:      0.015039  CPU:    0.146
  ** Hessian calculated **
  Cycle:     15 Energy:       -52.208091  Gnorm:      0.048402  CPU:    0.157
  Cycle:     16 Energy:       -52.208458  Gnorm:      0.145926  CPU:    0.175
  ** Hessian calculated **
  Cycle:     17 Energy:       -52.208556  Gnorm:      0.109413  CPU:    0.190
  Cycle:     18 Energy:       -52.208589  Gnorm:      0.105907  CPU:    0.205
  Cycle:     19 Energy:       -52.208589  Gnorm:      0.105907  CPU:    0.215
  ** Hessian calculated **
  Cycle:     20 Energy:       -52.208591  Gnorm:      0.105572  CPU:    0.232
  Cycle:     21 Energy:       -52.208593  Gnorm:      0.105623  CPU:    0.240
  Cycle:     22 Energy:       -52.208593  Gnorm:      0.105639  CPU:    0.248
  Cycle:     23 Energy:       -52.208594  Gnorm:      0.105647  CPU:    0.257
  Cycle:     24 Energy:       -52.208594  Gnorm:      0.105649  CPU:    0.265
  Cycle:     25 Energy:       -52.208594  Gnorm:      0.105650  CPU:    0.273
  Cycle:     26 Energy:       -52.208594  Gnorm:      0.105650  CPU:    0.282
  Cycle:     27 Energy:       -52.208594  Gnorm:      0.105650  CPU:    0.290
  ** Hessian calculated **
  Cycle:     28 Energy:       -52.208594  Gnorm:      0.105650  CPU:    0.309
  ** Hessian calculated **


  **** Conditions for a minimum have not been satisfied. However ****
  **** no lower point can be found - treat results with caution  ****
  **** unless gradient norm is small (less than 0.1)             ****


  Final energy =     -52.20859366 eV
  Final Gnorm  =       0.10565029

  Components of energy : 

--------------------------------------------------------------------------------
  Interatomic potentials     =           6.62012072 eV
  Monopole - monopole (real) =         -13.97222128 eV
  Monopole - monopole (recip)=         -44.85649311 eV
  Monopole - monopole (total)=         -58.82871438 eV
--------------------------------------------------------------------------------
  Total lattice energy : 
    Primitive unit cell      =         -52.20859366 eV
    Non-primitive unit cell  =        -156.62578098 eV
--------------------------------------------------------------------------------
  Total lattice energy (in kJmol-1): 
    Primitive unit cell      =           -5037.3312 kJ/(mole unit cells)
    Non-primitive unit cell  =          -15111.9936 kJ/(mole unit cells)
--------------------------------------------------------------------------------

  Final asymmetric unit coordinates :

--------------------------------------------------------------------------------
   No.  Atomic        x           y           z         Radius
        Label       (Frac)      (Frac)      (Frac)       (Angs) 
--------------------------------------------------------------------------------
     1  Tb    c     0.000000    0.000000    0.000000    0.000000
     2  Ba    c     0.000000    0.000000    0.250000    0.000000
     3  O     c     0.462400    0.000000    0.250000    0.000000
     4  O     s     0.462400    0.000000    0.250000    0.000000
--------------------------------------------------------------------------------

  Final Cartesian lattice vectors (Angstroms) :

        3.026828    1.747540    4.905581
       -3.026828    1.747540    4.905581
        0.000000   -3.495080    4.905581


  Final cell parameters and derivatives :

--------------------------------------------------------------------------------
       a            6.023313 Angstrom     dE/de1(xx)    -0.207368 eV/strain
       b            6.023313 Angstrom     dE/de2(yy)     0.000000 eV/strain
       c            6.023313 Angstrom     dE/de3(zz)     0.040575 eV/strain
       alpha       60.333555 Degrees      dE/de4(yz)     0.000000 eV/strain
       beta        60.333555 Degrees      dE/de5(xz)     0.000000 eV/strain
       gamma       60.333555 Degrees      dE/de6(xy)     0.000000 eV/strain
--------------------------------------------------------------------------------

  Primitive cell volume =           155.688483 Angs**3

  Density of cell =      7.343719 g/cm**3

  Non-primitive lattice parameters :

  a    =     6.053656  b   =     6.053656  c    =    14.716743
  alpha=    90.000000  beta=    90.000000  gamma=   120.000000

  Non-primitive cell volume =           467.065449 Angs**3


  Final internal derivatives :

--------------------------------------------------------------------------------
   No.  Atomic          a             b             c           Radius
        Label          (eV)          (eV)          (eV)        (eV/Angs)
--------------------------------------------------------------------------------
      1 Tb    c       0.000000      0.000000      0.000000      0.000000
      2 Ba    c       0.000000      0.000000      0.000000      0.000000
      3 O     c       0.000000      0.000000      0.000000      0.000000
      4 O     s       0.000000      0.000000      0.000000      0.000000
--------------------------------------------------------------------------------
  Maximum abs         0.000000      0.000000      0.000000      0.000000
--------------------------------------------------------------------------------


  Born effective charge tensors : 

-------------------------------------------------------------------------------
  Atom             x           y             z
-------------------------------------------------------------------------------
   1 Tb    x       0.1118     -0.0309      0.0000
           y       0.0309      0.1118      0.0000
           z       0.0000      0.0000      0.1336
-------------------------------------------------------------------------------
   2 Ba    x       2.4216      0.0000      0.0000
           y       0.0000      2.4216      0.0000
           z       0.0000      0.0000      2.4451
-------------------------------------------------------------------------------
   3 O     x      -1.0431      0.0000      0.0000
           y       0.0000     -0.6459      0.2959
           z       0.0000      0.2998     -0.8596
-------------------------------------------------------------------------------




  Elastic Constant Matrix: (Units=GPa)

-------------------------------------------------------------------------------
  Indices      1         2         3         4         5         6    
-------------------------------------------------------------------------------
       1     71.9212   22.8745   50.1070  -40.9865    0.0000    0.0000
       2     22.8745   71.9212   50.1070   40.9865    0.0000    0.0000
       3     50.1070   50.1070   35.6213    0.0000    0.0000    0.0000
       4    -40.9865   40.9865    0.0000   51.1183    0.0000    0.0000
       5      0.0000    0.0000    0.0000    0.0000   51.1183  -40.9865
       6      0.0000    0.0000    0.0000    0.0000  -40.9865   24.5234
-------------------------------------------------------------------------------


  Elastic Compliance Matrix: (Units=1/GPa)

-------------------------------------------------------------------------------
  Indices      1         2         3         4         5         6    
-------------------------------------------------------------------------------
       1   -0.040807  0.019149  0.030466 -0.048073  0.000000  0.000000
       2    0.019149 -0.040807  0.030466  0.048073  0.000000  0.000000
       3    0.030466  0.030466 -0.057638  0.000000  0.000000  0.000000
       4   -0.048073  0.048073  0.000000 -0.057526  0.000000  0.000000
       5    0.000000  0.000000  0.000000  0.000000 -0.057526 -0.096145
       6    0.000000  0.000000  0.000000  0.000000 -0.096145 -0.119912
-------------------------------------------------------------------------------

  Mechanical properties :

-------------------------------------------------------------------------------
  Convention :                    Reuss         Voigt         Hill
-------------------------------------------------------------------------------
  Bulk  Modulus (GPa)     =      47.82471      47.29343      47.55907
  Shear Modulus (GPa)     =      -9.48032      29.11036       9.81502
-------------------------------------------------------------------------------
  Velocity S-wave (km/s)  =      -1.13620       1.99097       1.15608
  Velocity P-wave (km/s)  =       2.18885       3.42422       2.87371
-------------------------------------------------------------------------------
  Compressibility (1/GPa) =    0.02090969
-------------------------------------------------------------------------------
  Stress axis :                     x             y             z
-------------------------------------------------------------------------------
  Youngs Moduli (GPa)     =     -24.50547     -24.50547     -17.34980
-------------------------------------------------------------------------------
  Poissons Ratio (x)      =                     0.46925       0.52858
  Poissons Ratio (y)      =       0.46925                     0.52858
  Poissons Ratio (z)      =       0.74658       0.74658
-------------------------------------------------------------------------------


  Piezoelectric Strain Matrix: (Units=C/m**2)

-------------------------------------------------------------------------------
  Indices      1         2         3         4         5         6    
-------------------------------------------------------------------------------
       x     0.00000   0.00000   0.00000   0.00000   0.00000   0.00000
       y     0.00000   0.00000   0.00000   0.00000   0.00000   0.00000
       z     0.00000   0.00000   0.00000   0.00000   0.00000   0.00000
-------------------------------------------------------------------------------


  Piezoelectric Stress Matrix: (Units=10**-11 C/N)

-------------------------------------------------------------------------------
  Indices      1         2         3         4         5         6    
-------------------------------------------------------------------------------
       x     0.00000   0.00000   0.00000   0.00000   0.00000   0.00000
       y     0.00000   0.00000   0.00000   0.00000   0.00000   0.00000
       z     0.00000   0.00000   0.00000   0.00000   0.00000   0.00000
-------------------------------------------------------------------------------


  Static dielectric constant tensor : 

-------------------------------------------------------------------------------
              x         y         z
-------------------------------------------------------------------------------
       x    -2.32714   0.00000   0.00000
       y     0.00000  -2.32714   0.00000
       z     0.00000   0.00000  -1.64162
--------------------------------------------------------------------------------

  High frequency dielectric constant tensor : 

-------------------------------------------------------------------------------
              x         y         z
-------------------------------------------------------------------------------
       x     1.56225   0.00000   0.00000
       y     0.00000   1.56225   0.00000
       z     0.00000   0.00000   1.56997
-------------------------------------------------------------------------------

  Static refractive indices : 

-------------------------------------------------------------------------------
    1 =   -1.52550      2 =   -1.52550      3 =   -1.28126
-------------------------------------------------------------------------------

  High frequency refractive indices : 

-------------------------------------------------------------------------------
    1 =    1.24990      2 =    1.24990      3 =    1.25298
-------------------------------------------------------------------------------


  Time to end of optimisation =       0.3404 seconds


  Peak dynamic memory used =       0.57 MB 


  Timing analysis for GULP :

--------------------------------------------------------------------------------
  Task / Subroutine                                          Time (Seconds)
--------------------------------------------------------------------------------
  Calculation of reciprocal space energy and derivatives          0.0027
  Calculation of reciprocal space energy using symmetry           0.0128
  Calculation of real space energy and derivatives                0.0103
  Calculation of real space energy using symmetry                 0.3096
  Symmetry generation of equivalent positions                     0.0005
--------------------------------------------------------------------------------
  Total CPU time                                                  0.3404
--------------------------------------------------------------------------------


  CIF file written as perov.cif                                               


  Job Finished at 09:26.31  6th April      2017                               

