********************************************************************************
*                       GENERAL UTILITY LATTICE PROGRAM                        *
*                                 Julian Gale                                  *
*                      Nanochemistry Research Institute                        *
*                           Department of Chemistry                            *
*                    Curtin University, Western Australia                      *
********************************************************************************
* Version = 4.3.2 * Last modified =  3rd March 2015                            *
********************************************************************************
*  optimise     - perform optimisation run                                     *
*  cell_only    - only optimise unit cell                                      *
*  property     - calculate properties for final geometry                      *
********************************************************************************

  Job Started  at 09:26.35  6th April      2017                               

  Number of CPUs =     1


  Total number of configurations input =   1

********************************************************************************
*  Input for Configuration =   1                                               *
********************************************************************************

  Formula = Tb2Ba2O6                                                    

  Number of irreducible atoms/shells =       4


  Total number atoms/shells =      16

  Dimensionality = 3               :  Bulk   


  Symmetry :

  Crystal family                   :  Hexagonal   
  Crystal class  (Groth - 1921)    :  Ditrigonal Scalenohedral             

  Space group (centrosymmetric)    :  R -3 C          

  Patterson group                  :  R -3 m   

  Cartesian lattice vectors (Angstroms) :

        3.039900    1.755087    4.922700
       -3.039900    1.755087    4.922700
        0.000000   -3.510174    4.922700

  Primitive cell parameters :            Full cell parameters :

  a =   6.0460    alpha =  60.3700       a =   6.0798    alpha =  90.0000
  b =   6.0460    beta  =  60.3700       b =   6.0798    beta  =  90.0000
  c =   6.0460    gamma =  60.3700       c =  14.7681    gamma = 120.0000

  Initial volumes (Angstroms**3):

  Primitive cell =         157.584170    Full cell =         472.752509

  Temperature of configuration =  0.000     K 

  Pressure of configuration =         0.000 GPa 

  Fractional coordinates of asymmetric unit :

--------------------------------------------------------------------------------
   No.  Atomic       x           y          z         Charge      Occupancy
        Label      (Frac)      (Frac)     (Frac)        (e)         (Frac)  
--------------------------------------------------------------------------------
      1 Tb    c    0.000000    0.000000    0.000000     0.80000    1.000000    
      2 Ba    c    0.000000    0.000000    0.250000     2.30000    1.000000    
      3 O     c    0.462400    0.000000    0.250000     0.37800    1.000000    
      4 O     s    0.462400    0.000000    0.250000    -1.41133    1.000000    
--------------------------------------------------------------------------------


  Constraints : 

--------------------------------------------------------------------------------
  Constraint no.      Unconstrained     Constrained    Coefficient    Offset
                         Variable         Variable
--------------------------------------------------------------------------------
           1              Strain 1        Strain 2       1.00000      0.0000
--------------------------------------------------------------------------------


********************************************************************************
*  General input information                                                   *
********************************************************************************

  Species output for all configurations : 

--------------------------------------------------------------------------------
  Species    Type    Atomic    Atomic    Charge       Radii (Angs)     Library
                     Number     Mass       (e)     Cova   Ionic  VDW   Symbol
--------------------------------------------------------------------------------
    Tb       Core       65     158.93   0.800000   1.760  0.000  2.630          
    Ba       Core       56     137.33   2.300000   1.340  0.000  2.000          
    O        Core        8      16.00   0.378000   0.730  0.000  1.360          
    O        Shell       8       0.00  -1.411333   0.730  0.000  1.360          
--------------------------------------------------------------------------------


  Lattice summation method               =    Ewald          (3-D)
                                         =    Parry          (2-D)
                                         =    Saunders et al (1-D)
  Accuracy factor for lattice sums       =   12.000


  Time limit = Infinity

  Maximum range for interatomic potentials =    100000.000000 Angstroms

  General interatomic potentials :

--------------------------------------------------------------------------------
Atom  Types   Potential         A         B         C         D     Cutoffs(Ang)
  1     2                                                            Min    Max 
--------------------------------------------------------------------------------
Ba   c Ba   c Buckingham    0.219E+04 0.192      0.00      0.00     0.000 10.000
Tb   c O    s Buckingham    0.148E+04 0.266      0.00      0.00     0.000 10.000
O    s O    s Buckingham     912.     0.271      13.8      0.00     0.000 10.000
Ba   c O    s Buckingham    0.352E+04 0.267      0.00      0.00     0.000 10.000
O    c O    s Spring (c-s)   25.5      0.00      0.00      0.00     0.000  0.800
--------------------------------------------------------------------------------

********************************************************************************
*  Output for configuration   1                                                *
********************************************************************************


  Components of energy : 

--------------------------------------------------------------------------------
  Interatomic potentials     =           6.38527986 eV
  Monopole - monopole (real) =         -21.04352403 eV
  Monopole - monopole (recip)=         -59.45012745 eV
  Monopole - monopole (total)=         -80.49365148 eV
--------------------------------------------------------------------------------
  Total lattice energy : 
    Primitive unit cell      =         -74.10837161 eV
    Non-primitive unit cell  =        -222.32511484 eV
--------------------------------------------------------------------------------
  Total lattice energy (in kJmol-1): 
    Primitive unit cell      =           -7150.3250 kJ/(mole unit cells)
    Non-primitive unit cell  =          -21450.9750 kJ/(mole unit cells)
--------------------------------------------------------------------------------


  Number of variables =        2

  Maximum number of calculations  =          1000
  Maximum Hessian update interval =            10
  Maximum step size               =   1.000000000
  Maximum parameter tolerance     =   0.000010000
  Maximum function  tolerance     =   0.000010000
  Maximum gradient  tolerance     =   0.001000000
  Maximum gradient  component     =   0.010000000

  Symmetry constrained optimisation

  Symmetry used for second derivatives

  Cell parameters to be optimised using strains

  Newton-Raphson optimiser to be used

  BFGS hessian update to be used

  Start of bulk optimisation :

  Cycle:      0 Energy:       -74.108372  Gnorm:      8.784094  CPU:    0.007
  ** Hessian calculated **
  Cycle:      1 Energy:       -74.721805  Gnorm:      1.557830  CPU:    0.015
  Cycle:      2 Energy:       -74.735032  Gnorm:      0.354041  CPU:    0.024
  Cycle:      3 Energy:       -74.736279  Gnorm:      0.088443  CPU:    0.034
  Cycle:      4 Energy:       -74.736288  Gnorm:      0.080238  CPU:    0.047
  Cycle:      5 Energy:       -74.736298  Gnorm:      0.069172  CPU:    0.059
  Cycle:      6 Energy:       -74.736306  Gnorm:      0.059696  CPU:    0.072
  Cycle:      7 Energy:       -74.736310  Gnorm:      0.053982  CPU:    0.082
  Cycle:      8 Energy:       -74.736312  Gnorm:      0.050127  CPU:    0.092
  Cycle:      9 Energy:       -74.736314  Gnorm:      0.047258  CPU:    0.103
  Cycle:     10 Energy:       -74.736315  Gnorm:      0.044963  CPU:    0.113
  ** Hessian calculated **
  Cycle:     11 Energy:       -74.736325  Gnorm:      0.021317  CPU:    0.129
  Cycle:     12 Energy:       -74.736328  Gnorm:      0.009468  CPU:    0.139
  Cycle:     13 Energy:       -74.736328  Gnorm:      0.003547  CPU:    0.149
  Cycle:     14 Energy:       -74.736328  Gnorm:      0.002068  CPU:    0.158
  Cycle:     15 Energy:       -74.736328  Gnorm:      0.002068  CPU:    0.166
  ** Hessian calculated **
  Cycle:     16 Energy:       -74.736328  Gnorm:      0.002068  CPU:    0.177
  ** Hessian calculated **


  **** Conditions for a minimum have not been satisfied. However ****
  **** no lower point can be found - treat results with caution  ****
  **** unless gradient norm is small (less than 0.1)             ****


  Final energy =     -74.73632816 eV
  Final Gnorm  =       0.00206762

  Components of energy : 

--------------------------------------------------------------------------------
  Interatomic potentials     =           9.91004714 eV
  Monopole - monopole (real) =         -22.12484940 eV
  Monopole - monopole (recip)=         -62.52152590 eV
  Monopole - monopole (total)=         -84.64637530 eV
--------------------------------------------------------------------------------
  Total lattice energy : 
    Primitive unit cell      =         -74.73632816 eV
    Non-primitive unit cell  =        -224.20898449 eV
--------------------------------------------------------------------------------
  Total lattice energy (in kJmol-1): 
    Primitive unit cell      =           -7210.9132 kJ/(mole unit cells)
    Non-primitive unit cell  =          -21632.7397 kJ/(mole unit cells)
--------------------------------------------------------------------------------

  Final asymmetric unit coordinates :

--------------------------------------------------------------------------------
   No.  Atomic        x           y           z         Radius
        Label       (Frac)      (Frac)      (Frac)       (Angs) 
--------------------------------------------------------------------------------
     1  Tb    c     0.000000    0.000000    0.000000    0.000000
     2  Ba    c     0.000000    0.000000    0.250000    0.000000
     3  O     c     0.462400    0.000000    0.250000    0.000000
     4  O     s     0.462400    0.000000    0.250000    0.000000
--------------------------------------------------------------------------------

  Final Cartesian lattice vectors (Angstroms) :

        2.895015    1.671438    4.666485
       -2.895015    1.671438    4.666485
        0.000000   -3.342876    4.666485


  Final cell parameters and derivatives :

--------------------------------------------------------------------------------
       a            5.740288 Angstrom     dE/de1(xx)    -0.003734 eV/strain
       b            5.740288 Angstrom     dE/de2(yy)     0.000000 eV/strain
       c            5.740288 Angstrom     dE/de3(zz)    -0.001778 eV/strain
       alpha       60.574144 Degrees      dE/de4(yz)     0.000000 eV/strain
       beta        60.574144 Degrees      dE/de5(xz)     0.000000 eV/strain
       gamma       60.574144 Degrees      dE/de6(xy)     0.000000 eV/strain
--------------------------------------------------------------------------------

  Primitive cell volume =           135.482209 Angs**3

  Density of cell =      8.438987 g/cm**3

  Non-primitive lattice parameters :

  a    =     5.790031  b   =     5.790031  c    =    13.999456
  alpha=    90.000000  beta=    90.000000  gamma=   120.000000

  Non-primitive cell volume =           406.446627 Angs**3


  Final internal derivatives :

--------------------------------------------------------------------------------
   No.  Atomic          a             b             c           Radius
        Label          (eV)          (eV)          (eV)        (eV/Angs)
--------------------------------------------------------------------------------
      1 Tb    c       0.000000      0.000000      0.000000      0.000000
      2 Ba    c       0.000000      0.000000      0.000000      0.000000
      3 O     c       0.000000      0.000000      0.000000      0.000000
      4 O     s       0.000000      0.000000      0.000000      0.000000
--------------------------------------------------------------------------------
  Maximum abs         0.000000      0.000000      0.000000      0.000000
--------------------------------------------------------------------------------


  Born effective charge tensors : 

-------------------------------------------------------------------------------
  Atom             x           y             z
-------------------------------------------------------------------------------
   1 Tb    x       0.3126     -0.0253      0.0000
           y       0.0253      0.3126      0.0000
           z       0.0000      0.0000      0.3392
-------------------------------------------------------------------------------
   2 Ba    x       2.6560      0.0000      0.0000
           y       0.0000      2.6560      0.0000
           z       0.0000      0.0000      2.6916
-------------------------------------------------------------------------------
   3 O     x      -1.1899      0.0000      0.0000
           y       0.0000     -0.7892      0.3026
           z       0.0000      0.3085     -1.0103
-------------------------------------------------------------------------------




  Elastic Constant Matrix: (Units=GPa)

-------------------------------------------------------------------------------
  Indices      1         2         3         4         5         6    
-------------------------------------------------------------------------------
       1    119.4422   36.9650   70.3559  -50.9062    0.0000    0.0000
       2     36.9650  119.4422   70.3559   50.9062    0.0000    0.0000
       3     70.3559   70.3559   72.4026    0.0000    0.0000    0.0000
       4    -50.9062   50.9062    0.0000   72.3639    0.0000    0.0000
       5      0.0000    0.0000    0.0000    0.0000   72.3639  -50.9062
       6      0.0000    0.0000    0.0000    0.0000  -50.9062   41.2386
-------------------------------------------------------------------------------


  Elastic Compliance Matrix: (Units=1/GPa)

-------------------------------------------------------------------------------
  Indices      1         2         3         4         5         6    
-------------------------------------------------------------------------------
       1    0.071478 -0.020647 -0.049394  0.064808  0.000000  0.000000
       2   -0.020647  0.071478 -0.049394 -0.064808  0.000000  0.000000
       3   -0.049394 -0.049394  0.109808  0.000000  0.000000  0.000000
       4    0.064808 -0.064808  0.000000  0.105001  0.000000  0.000000
       5    0.000000  0.000000  0.000000  0.000000  0.105001  0.129616
       6    0.000000  0.000000  0.000000  0.000000  0.129616  0.184251
-------------------------------------------------------------------------------

  Mechanical properties :

-------------------------------------------------------------------------------
  Convention :                    Reuss         Voigt         Hill
-------------------------------------------------------------------------------
  Bulk  Modulus (GPa)     =      71.97921      74.07117      73.02519
  Shear Modulus (GPa)     =       5.61470      46.10061      25.85765
-------------------------------------------------------------------------------
  Velocity S-wave (km/s)  =       0.81568       2.33727       1.75045
  Velocity P-wave (km/s)  =       3.06863       4.00762       3.56914
-------------------------------------------------------------------------------
  Compressibility (1/GPa) =    0.01389290
-------------------------------------------------------------------------------
  Stress axis :                     x             y             z
-------------------------------------------------------------------------------
  Youngs Moduli (GPa)     =      13.99026      13.99026       9.10683
-------------------------------------------------------------------------------
  Poissons Ratio (x)      =                     0.28886       0.44983
  Poissons Ratio (y)      =       0.28886                     0.44983
  Poissons Ratio (z)      =       0.69104       0.69104
-------------------------------------------------------------------------------


  Piezoelectric Strain Matrix: (Units=C/m**2)

-------------------------------------------------------------------------------
  Indices      1         2         3         4         5         6    
-------------------------------------------------------------------------------
       x     0.00000   0.00000   0.00000   0.00000   0.00000   0.00000
       y     0.00000   0.00000   0.00000   0.00000   0.00000   0.00000
       z     0.00000   0.00000   0.00000   0.00000   0.00000   0.00000
-------------------------------------------------------------------------------


  Piezoelectric Stress Matrix: (Units=10**-11 C/N)

-------------------------------------------------------------------------------
  Indices      1         2         3         4         5         6    
-------------------------------------------------------------------------------
       x     0.00000   0.00000   0.00000   0.00000   0.00000   0.00000
       y     0.00000   0.00000   0.00000   0.00000   0.00000   0.00000
       z     0.00000   0.00000   0.00000   0.00000   0.00000   0.00000
-------------------------------------------------------------------------------


  Static dielectric constant tensor : 

-------------------------------------------------------------------------------
              x         y         z
-------------------------------------------------------------------------------
       x    -4.00746   0.00000   0.00000
       y     0.00000  -4.00746   0.00000
       z     0.00000   0.00000  -2.85459
--------------------------------------------------------------------------------

  High frequency dielectric constant tensor : 

-------------------------------------------------------------------------------
              x         y         z
-------------------------------------------------------------------------------
       x     1.63812   0.00000   0.00000
       y     0.00000   1.63812   0.00000
       z     0.00000   0.00000   1.64892
-------------------------------------------------------------------------------

  Static refractive indices : 

-------------------------------------------------------------------------------
    1 =   -2.00186      2 =   -2.00186      3 =   -1.68955
-------------------------------------------------------------------------------

  High frequency refractive indices : 

-------------------------------------------------------------------------------
    1 =    1.27989      2 =    1.27989      3 =    1.28410
-------------------------------------------------------------------------------


  Time to end of optimisation =       0.2003 seconds


  Peak dynamic memory used =       0.57 MB 


  Timing analysis for GULP :

--------------------------------------------------------------------------------
  Task / Subroutine                                          Time (Seconds)
--------------------------------------------------------------------------------
  Calculation of reciprocal space energy and derivatives          0.0019
  Calculation of reciprocal space energy using symmetry           0.0069
  Calculation of real space energy and derivatives                0.0100
  Calculation of real space energy using symmetry                 0.1772
  Symmetry generation of equivalent positions                     0.0004
--------------------------------------------------------------------------------
  Total CPU time                                                  0.2003
--------------------------------------------------------------------------------


  CIF file written as perov.cif                                               


  Job Finished at 09:26.35  6th April      2017                               

