********************************************************************************
*                       GENERAL UTILITY LATTICE PROGRAM                        *
*                                 Julian Gale                                  *
*                      Nanochemistry Research Institute                        *
*                           Department of Chemistry                            *
*                    Curtin University, Western Australia                      *
********************************************************************************
* Version = 4.3.2 * Last modified =  3rd March 2015                            *
********************************************************************************
*  optimise     - perform optimisation run                                     *
*  cell_only    - only optimise unit cell                                      *
*  property     - calculate properties for final geometry                      *
********************************************************************************

  Job Started  at 09:29.23  6th April      2017                               

  Number of CPUs =     1


  Total number of configurations input =   1

********************************************************************************
*  Input for Configuration =   1                                               *
********************************************************************************

  Formula = Tb2Ba2O6                                                    

  Number of irreducible atoms/shells =       4


  Total number atoms/shells =      16

  Dimensionality = 3               :  Bulk   


  Symmetry :

  Crystal family                   :  Hexagonal   
  Crystal class  (Groth - 1921)    :  Ditrigonal Scalenohedral             

  Space group (centrosymmetric)    :  R -3 C          

  Patterson group                  :  R -3 m   

  Cartesian lattice vectors (Angstroms) :

        3.039900    1.755087    4.922700
       -3.039900    1.755087    4.922700
        0.000000   -3.510174    4.922700

  Primitive cell parameters :            Full cell parameters :

  a =   6.0460    alpha =  60.3700       a =   6.0798    alpha =  90.0000
  b =   6.0460    beta  =  60.3700       b =   6.0798    beta  =  90.0000
  c =   6.0460    gamma =  60.3700       c =  14.7681    gamma = 120.0000

  Initial volumes (Angstroms**3):

  Primitive cell =         157.584170    Full cell =         472.752509

  Temperature of configuration =  0.000     K 

  Pressure of configuration =         0.000 GPa 

  Fractional coordinates of asymmetric unit :

--------------------------------------------------------------------------------
   No.  Atomic       x           y          z         Charge      Occupancy
        Label      (Frac)      (Frac)     (Frac)        (e)         (Frac)  
--------------------------------------------------------------------------------
      1 Tb    c    0.000000    0.000000    0.000000     1.10000    1.000000    
      2 Ba    c    0.000000    0.000000    0.250000     2.30000    1.000000    
      3 O     c    0.462400    0.000000    0.250000     0.37800    1.000000    
      4 O     s    0.462400    0.000000    0.250000    -1.51133    1.000000    
--------------------------------------------------------------------------------


  Constraints : 

--------------------------------------------------------------------------------
  Constraint no.      Unconstrained     Constrained    Coefficient    Offset
                         Variable         Variable
--------------------------------------------------------------------------------
           1              Strain 1        Strain 2       1.00000      0.0000
--------------------------------------------------------------------------------


********************************************************************************
*  General input information                                                   *
********************************************************************************

  Species output for all configurations : 

--------------------------------------------------------------------------------
  Species    Type    Atomic    Atomic    Charge       Radii (Angs)     Library
                     Number     Mass       (e)     Cova   Ionic  VDW   Symbol
--------------------------------------------------------------------------------
    Tb       Core       65     158.93   1.100000   1.760  0.000  2.630          
    Ba       Core       56     137.33   2.300000   1.340  0.000  2.000          
    O        Core        8      16.00   0.378000   0.730  0.000  1.360          
    O        Shell       8       0.00  -1.511333   0.730  0.000  1.360          
--------------------------------------------------------------------------------


  Lattice summation method               =    Ewald          (3-D)
                                         =    Parry          (2-D)
                                         =    Saunders et al (1-D)
  Accuracy factor for lattice sums       =   12.000


  Time limit = Infinity

  Maximum range for interatomic potentials =    100000.000000 Angstroms

  General interatomic potentials :

--------------------------------------------------------------------------------
Atom  Types   Potential         A         B         C         D     Cutoffs(Ang)
  1     2                                                            Min    Max 
--------------------------------------------------------------------------------
Ba   c Ba   c Buckingham    0.219E+04 0.192      0.00      0.00     0.000 20.000
Tb   c O    s Buckingham    0.148E+04 0.266      0.00      0.00     0.000 20.000
O    s O    s Buckingham     912.     0.271      13.8      0.00     0.000 20.000
Ba   c O    s Buckingham    0.352E+04 0.267      0.00      0.00     0.000 20.000
O    c O    s Spring (c-s)   29.3      0.00      0.00      0.00     0.000  0.800
--------------------------------------------------------------------------------

********************************************************************************
*  Output for configuration   1                                                *
********************************************************************************


  Components of energy : 

--------------------------------------------------------------------------------
  Interatomic potentials     =           6.37949580 eV
  Monopole - monopole (real) =         -26.95817374 eV
  Monopole - monopole (recip)=         -67.87400882 eV
  Monopole - monopole (total)=         -94.83218256 eV
--------------------------------------------------------------------------------
  Total lattice energy : 
    Primitive unit cell      =         -88.45268676 eV
    Non-primitive unit cell  =        -265.35806029 eV
--------------------------------------------------------------------------------
  Total lattice energy (in kJmol-1): 
    Primitive unit cell      =           -8534.3321 kJ/(mole unit cells)
    Non-primitive unit cell  =          -25602.9964 kJ/(mole unit cells)
--------------------------------------------------------------------------------


  Number of variables =        2

  Maximum number of calculations  =          1000
  Maximum Hessian update interval =            10
  Maximum step size               =   1.000000000
  Maximum parameter tolerance     =   0.000010000
  Maximum function  tolerance     =   0.000010000
  Maximum gradient  tolerance     =   0.001000000
  Maximum gradient  component     =   0.010000000

  Symmetry constrained optimisation

  Symmetry used for second derivatives

  Cell parameters to be optimised using strains

  Newton-Raphson optimiser to be used

  BFGS hessian update to be used

  Start of bulk optimisation :

  Cycle:      0 Energy:       -88.452687  Gnorm:     14.211257  CPU:    0.009
  ** Hessian calculated **
  Cycle:      1 Energy:       -89.942572  Gnorm:      3.867097  CPU:    0.020
  Cycle:      2 Energy:       -90.008184  Gnorm:      1.281309  CPU:    0.030
  Cycle:      3 Energy:       -90.017237  Gnorm:      0.000620  CPU:    0.044


  **** Optimisation achieved ****


  Final energy =     -90.01723680 eV
  Final Gnorm  =       0.00002127

  Components of energy : 

--------------------------------------------------------------------------------
  Interatomic potentials     =          12.24206066 eV
  Monopole - monopole (real) =         -29.07483971 eV
  Monopole - monopole (recip)=         -73.18445774 eV
  Monopole - monopole (total)=        -102.25929745 eV
--------------------------------------------------------------------------------
  Total lattice energy : 
    Primitive unit cell      =         -90.01723680 eV
    Non-primitive unit cell  =        -270.05171039 eV
--------------------------------------------------------------------------------
  Total lattice energy (in kJmol-1): 
    Primitive unit cell      =           -8685.2873 kJ/(mole unit cells)
    Non-primitive unit cell  =          -26055.8619 kJ/(mole unit cells)
--------------------------------------------------------------------------------

  Final asymmetric unit coordinates :

--------------------------------------------------------------------------------
   No.  Atomic        x           y           z         Radius
        Label       (Frac)      (Frac)      (Frac)       (Angs) 
--------------------------------------------------------------------------------
     1  Tb    c     0.000000    0.000000    0.000000    0.000000
     2  Ba    c     0.000000    0.000000    0.250000    0.000000
     3  O     c     0.462400    0.000000    0.250000    0.000000
     4  O     s     0.462400    0.000000    0.250000    0.000000
--------------------------------------------------------------------------------

  Final Cartesian lattice vectors (Angstroms) :

        2.814623    1.625023    4.580766
       -2.814623    1.625023    4.580766
        0.000000   -3.250047    4.580766


  Final cell parameters and derivatives :

--------------------------------------------------------------------------------
       a            5.616602 Angstrom     dE/de1(xx)     0.000013 eV/strain
       b            5.616602 Angstrom     dE/de2(yy)     0.000000 eV/strain
       c            5.616602 Angstrom     dE/de3(zz)    -0.000040 eV/strain
       alpha       60.148987 Degrees      dE/de4(yz)     0.000000 eV/strain
       beta        60.148987 Degrees      dE/de5(xz)     0.000000 eV/strain
       gamma       60.148987 Degrees      dE/de6(xy)     0.000000 eV/strain
--------------------------------------------------------------------------------

  Primitive cell volume =           125.709819 Angs**3

  Density of cell =      9.095014 g/cm**3

  Non-primitive lattice parameters :

  a    =     5.629246  b   =     5.629246  c    =    13.742299
  alpha=    90.000000  beta=    90.000000  gamma=   120.000000

  Non-primitive cell volume =           377.129458 Angs**3


  Final internal derivatives :

--------------------------------------------------------------------------------
   No.  Atomic          a             b             c           Radius
        Label          (eV)          (eV)          (eV)        (eV/Angs)
--------------------------------------------------------------------------------
      1 Tb    c       0.000000      0.000000      0.000000      0.000000
      2 Ba    c       0.000000      0.000000      0.000000      0.000000
      3 O     c       0.000000      0.000000      0.000000      0.000000
      4 O     s       0.000000      0.000000      0.000000      0.000000
--------------------------------------------------------------------------------
  Maximum abs         0.000000      0.000000      0.000000      0.000000
--------------------------------------------------------------------------------


  Born effective charge tensors : 

-------------------------------------------------------------------------------
  Atom             x           y             z
-------------------------------------------------------------------------------
   1 Tb    x       0.5598     -0.0141      0.0000
           y       0.0141      0.5598      0.0000
           z       0.0000      0.0000      0.5709
-------------------------------------------------------------------------------
   2 Ba    x       2.6269      0.0000      0.0000
           y       0.0000      2.6269      0.0000
           z       0.0000      0.0000      2.6658
-------------------------------------------------------------------------------
   3 O     x      -1.2363      0.0000      0.0000
           y       0.0000     -0.8882      0.2676
           z       0.0000      0.2695     -1.0789
-------------------------------------------------------------------------------




  Elastic Constant Matrix: (Units=GPa)

-------------------------------------------------------------------------------
  Indices      1         2         3         4         5         6    
-------------------------------------------------------------------------------
       1    161.4222   45.5550   79.7501  -49.5073    0.0000    0.0000
       2     45.5550  161.4222   79.7501   49.5073    0.0000    0.0000
       3     79.7501   79.7501  110.5419    0.0000    0.0000    0.0000
       4    -49.5073   49.5073    0.0000   83.3827    0.0000    0.0000
       5      0.0000    0.0000    0.0000    0.0000   83.3827  -49.5073
       6      0.0000    0.0000    0.0000    0.0000  -49.5073   57.9336
-------------------------------------------------------------------------------


  Elastic Compliance Matrix: (Units=1/GPa)

-------------------------------------------------------------------------------
  Indices      1         2         3         4         5         6    
-------------------------------------------------------------------------------
       1    0.014200 -0.003320 -0.007850  0.010402  0.000000  0.000000
       2   -0.003320  0.014200 -0.007850 -0.010402  0.000000  0.000000
       3   -0.007850 -0.007850  0.020373  0.000000  0.000000  0.000000
       4    0.010402 -0.010402  0.000000  0.024345  0.000000  0.000000
       5    0.000000  0.000000  0.000000  0.000000  0.024345  0.020804
       6    0.000000  0.000000  0.000000  0.000000  0.020804  0.035039
-------------------------------------------------------------------------------

  Mechanical properties :

-------------------------------------------------------------------------------
  Convention :                    Reuss         Voigt         Hill
-------------------------------------------------------------------------------
  Bulk  Modulus (GPa)     =      93.15460      93.72187      93.43823
  Shear Modulus (GPa)     =      28.71598      60.16187      44.43892
-------------------------------------------------------------------------------
  Velocity S-wave (km/s)  =       1.77689       2.57193       2.21045
  Velocity P-wave (km/s)  =       3.80160       4.37316       4.09736
-------------------------------------------------------------------------------
  Compressibility (1/GPa) =    0.01073484
-------------------------------------------------------------------------------
  Stress axis :                     x             y             z
-------------------------------------------------------------------------------
  Youngs Moduli (GPa)     =      70.42177      70.42177      49.08506
-------------------------------------------------------------------------------
  Poissons Ratio (x)      =                     0.23377       0.38531
  Poissons Ratio (y)      =       0.23377                     0.38531
  Poissons Ratio (z)      =       0.55280       0.55280
-------------------------------------------------------------------------------


  Piezoelectric Strain Matrix: (Units=C/m**2)

-------------------------------------------------------------------------------
  Indices      1         2         3         4         5         6    
-------------------------------------------------------------------------------
       x     0.00000   0.00000   0.00000   0.00000   0.00000   0.00000
       y     0.00000   0.00000   0.00000   0.00000   0.00000   0.00000
       z     0.00000   0.00000   0.00000   0.00000   0.00000   0.00000
-------------------------------------------------------------------------------


  Piezoelectric Stress Matrix: (Units=10**-11 C/N)

-------------------------------------------------------------------------------
  Indices      1         2         3         4         5         6    
-------------------------------------------------------------------------------
       x     0.00000   0.00000   0.00000   0.00000   0.00000   0.00000
       y     0.00000   0.00000   0.00000   0.00000   0.00000   0.00000
       z     0.00000   0.00000   0.00000   0.00000   0.00000   0.00000
-------------------------------------------------------------------------------


  Static dielectric constant tensor : 

-------------------------------------------------------------------------------
              x         y         z
-------------------------------------------------------------------------------
       x    -6.88517   0.00000   0.00000
       y     0.00000  -6.88517   0.00000
       z     0.00000   0.00000  -4.33655
--------------------------------------------------------------------------------

  High frequency dielectric constant tensor : 

-------------------------------------------------------------------------------
              x         y         z
-------------------------------------------------------------------------------
       x     1.67734   0.00000   0.00000
       y     0.00000   1.67734   0.00000
       z     0.00000   0.00000   1.68595
-------------------------------------------------------------------------------

  Static refractive indices : 

-------------------------------------------------------------------------------
    1 =   -2.62396      2 =   -2.62396      3 =   -2.08244
-------------------------------------------------------------------------------

  High frequency refractive indices : 

-------------------------------------------------------------------------------
    1 =    1.29512      2 =    1.29512      3 =    1.29844
-------------------------------------------------------------------------------


  Time to end of optimisation =       0.0708 seconds


  Peak dynamic memory used =       0.57 MB 


  Timing analysis for GULP :

--------------------------------------------------------------------------------
  Task / Subroutine                                          Time (Seconds)
--------------------------------------------------------------------------------
  Calculation of reciprocal space energy and derivatives          0.0009
  Calculation of reciprocal space energy using symmetry           0.0015
  Calculation of real space energy and derivatives                0.0147
  Calculation of real space energy using symmetry                 0.0502
  Symmetry generation of equivalent positions                     0.0003
--------------------------------------------------------------------------------
  Total CPU time                                                  0.0709
--------------------------------------------------------------------------------


  CIF file written as perov.cif                                               


  Job Finished at 09:29.23  6th April      2017                               

