********************************************************************************
*                       GENERAL UTILITY LATTICE PROGRAM                        *
*                                 Julian Gale                                  *
*                      Nanochemistry Research Institute                        *
*                           Department of Chemistry                            *
*                    Curtin University, Western Australia                      *
********************************************************************************
* Version = 4.3.2 * Last modified =  3rd March 2015                            *
********************************************************************************
*  optimise     - perform optimisation run                                     *
*  cell_only    - only optimise unit cell                                      *
*  property     - calculate properties for final geometry                      *
********************************************************************************

  Job Started  at 09:29.23  6th April      2017                               

  Number of CPUs =     1


  Total number of configurations input =   1

********************************************************************************
*  Input for Configuration =   1                                               *
********************************************************************************

  Formula = Tb2Ba2O6                                                    

  Number of irreducible atoms/shells =       4


  Total number atoms/shells =      16

  Dimensionality = 3               :  Bulk   


  Symmetry :

  Crystal family                   :  Hexagonal   
  Crystal class  (Groth - 1921)    :  Ditrigonal Scalenohedral             

  Space group (centrosymmetric)    :  R -3 C          

  Patterson group                  :  R -3 m   

  Cartesian lattice vectors (Angstroms) :

        3.039900    1.755087    4.922700
       -3.039900    1.755087    4.922700
        0.000000   -3.510174    4.922700

  Primitive cell parameters :            Full cell parameters :

  a =   6.0460    alpha =  60.3700       a =   6.0798    alpha =  90.0000
  b =   6.0460    beta  =  60.3700       b =   6.0798    beta  =  90.0000
  c =   6.0460    gamma =  60.3700       c =  14.7681    gamma = 120.0000

  Initial volumes (Angstroms**3):

  Primitive cell =         157.584170    Full cell =         472.752509

  Temperature of configuration =  0.000     K 

  Pressure of configuration =         0.000 GPa 

  Fractional coordinates of asymmetric unit :

--------------------------------------------------------------------------------
   No.  Atomic       x           y          z         Charge      Occupancy
        Label      (Frac)      (Frac)     (Frac)        (e)         (Frac)  
--------------------------------------------------------------------------------
      1 Tb    c    0.000000    0.000000    0.000000     1.10000    1.000000    
      2 Ba    c    0.000000    0.000000    0.250000     1.90000    1.000000    
      3 O     c    0.462400    0.000000    0.250000     0.37800    1.000000    
      4 O     s    0.462400    0.000000    0.250000    -1.37800    1.000000    
--------------------------------------------------------------------------------


  Constraints : 

--------------------------------------------------------------------------------
  Constraint no.      Unconstrained     Constrained    Coefficient    Offset
                         Variable         Variable
--------------------------------------------------------------------------------
           1              Strain 1        Strain 2       1.00000      0.0000
--------------------------------------------------------------------------------


********************************************************************************
*  General input information                                                   *
********************************************************************************

  Species output for all configurations : 

--------------------------------------------------------------------------------
  Species    Type    Atomic    Atomic    Charge       Radii (Angs)     Library
                     Number     Mass       (e)     Cova   Ionic  VDW   Symbol
--------------------------------------------------------------------------------
    Tb       Core       65     158.93   1.100000   1.760  0.000  2.630          
    Ba       Core       56     137.33   1.900000   1.340  0.000  2.000          
    O        Core        8      16.00   0.378000   0.730  0.000  1.360          
    O        Shell       8       0.00  -1.378000   0.730  0.000  1.360          
--------------------------------------------------------------------------------


  Lattice summation method               =    Ewald          (3-D)
                                         =    Parry          (2-D)
                                         =    Saunders et al (1-D)
  Accuracy factor for lattice sums       =   12.000


  Time limit = Infinity

  Maximum range for interatomic potentials =    100000.000000 Angstroms

  General interatomic potentials :

--------------------------------------------------------------------------------
Atom  Types   Potential         A         B         C         D     Cutoffs(Ang)
  1     2                                                            Min    Max 
--------------------------------------------------------------------------------
Ba   c Ba   c Buckingham    0.219E+04 0.192      0.00      0.00     0.000 20.000
Tb   c O    s Buckingham    0.148E+04 0.266      0.00      0.00     0.000 20.000
O    s O    s Buckingham     912.     0.271      13.8      0.00     0.000 20.000
Ba   c O    s Buckingham    0.352E+04 0.267      0.00      0.00     0.000 20.000
O    c O    s Spring (c-s)   24.3      0.00      0.00      0.00     0.000  0.800
--------------------------------------------------------------------------------

********************************************************************************
*  Output for configuration   1                                                *
********************************************************************************


  Components of energy : 

--------------------------------------------------------------------------------
  Interatomic potentials     =           6.37949580 eV
  Monopole - monopole (real) =         -21.88873657 eV
  Monopole - monopole (recip)=         -51.49574396 eV
  Monopole - monopole (total)=         -73.38448052 eV
--------------------------------------------------------------------------------
  Total lattice energy : 
    Primitive unit cell      =         -67.00498473 eV
    Non-primitive unit cell  =        -201.01495418 eV
--------------------------------------------------------------------------------
  Total lattice energy (in kJmol-1): 
    Primitive unit cell      =           -6464.9568 kJ/(mole unit cells)
    Non-primitive unit cell  =          -19394.8703 kJ/(mole unit cells)
--------------------------------------------------------------------------------


  Number of variables =        2

  Maximum number of calculations  =          1000
  Maximum Hessian update interval =            10
  Maximum step size               =   1.000000000
  Maximum parameter tolerance     =   0.000010000
  Maximum function  tolerance     =   0.000010000
  Maximum gradient  tolerance     =   0.001000000
  Maximum gradient  component     =   0.010000000

  Symmetry constrained optimisation

  Symmetry used for second derivatives

  Cell parameters to be optimised using strains

  Newton-Raphson optimiser to be used

  BFGS hessian update to be used

  Start of bulk optimisation :

  Cycle:      0 Energy:       -67.004985  Gnorm:      6.148234  CPU:    0.009
  ** Hessian calculated **
  Cycle:      1 Energy:       -67.313655  Gnorm:      0.754555  CPU:    0.020
  Cycle:      2 Energy:       -67.317403  Gnorm:      0.125851  CPU:    0.030
  Cycle:      3 Energy:       -67.317513  Gnorm:      0.000139  CPU:    0.041


  **** Optimisation achieved ****


  Final energy =     -67.31751334 eV
  Final Gnorm  =       0.00000040

  Components of energy : 

--------------------------------------------------------------------------------
  Interatomic potentials     =           8.79910911 eV
  Monopole - monopole (real) =         -22.70713762 eV
  Monopole - monopole (recip)=         -53.40948483 eV
  Monopole - monopole (total)=         -76.11662245 eV
--------------------------------------------------------------------------------
  Total lattice energy : 
    Primitive unit cell      =         -67.31751334 eV
    Non-primitive unit cell  =        -201.95254002 eV
--------------------------------------------------------------------------------
  Total lattice energy (in kJmol-1): 
    Primitive unit cell      =           -6495.1110 kJ/(mole unit cells)
    Non-primitive unit cell  =          -19485.3330 kJ/(mole unit cells)
--------------------------------------------------------------------------------

  Final asymmetric unit coordinates :

--------------------------------------------------------------------------------
   No.  Atomic        x           y           z         Radius
        Label       (Frac)      (Frac)      (Frac)       (Angs) 
--------------------------------------------------------------------------------
     1  Tb    c     0.000000    0.000000    0.000000    0.000000
     2  Ba    c     0.000000    0.000000    0.250000    0.000000
     3  O     c     0.462400    0.000000    0.250000    0.000000
     4  O     s     0.462400    0.000000    0.250000    0.000000
--------------------------------------------------------------------------------

  Final Cartesian lattice vectors (Angstroms) :

        2.926697    1.689729    4.760234
       -2.926697    1.689729    4.760234
        0.000000   -3.379459    4.760234


  Final cell parameters and derivatives :

--------------------------------------------------------------------------------
       a            5.837857 Angstrom     dE/de1(xx)     0.000000 eV/strain
       b            5.837857 Angstrom     dE/de2(yy)     0.000000 eV/strain
       c            5.837857 Angstrom     dE/de3(zz)    -0.000001 eV/strain
       alpha       60.176162 Degrees      dE/de4(yz)     0.000000 eV/strain
       beta        60.176162 Degrees      dE/de5(xz)     0.000000 eV/strain
       gamma       60.176162 Degrees      dE/de6(xy)     0.000000 eV/strain
--------------------------------------------------------------------------------

  Primitive cell volume =           141.245465 Angs**3

  Density of cell =      8.094650 g/cm**3

  Non-primitive lattice parameters :

  a    =     5.853394  b   =     5.853394  c    =    14.280703
  alpha=    90.000000  beta=    90.000000  gamma=   120.000000

  Non-primitive cell volume =           423.736394 Angs**3


  Final internal derivatives :

--------------------------------------------------------------------------------
   No.  Atomic          a             b             c           Radius
        Label          (eV)          (eV)          (eV)        (eV/Angs)
--------------------------------------------------------------------------------
      1 Tb    c       0.000000      0.000000      0.000000      0.000000
      2 Ba    c       0.000000      0.000000      0.000000      0.000000
      3 O     c       0.000000      0.000000      0.000000      0.000000
      4 O     s       0.000000      0.000000      0.000000      0.000000
--------------------------------------------------------------------------------
  Maximum abs         0.000000      0.000000      0.000000      0.000000
--------------------------------------------------------------------------------


  Born effective charge tensors : 

-------------------------------------------------------------------------------
  Atom             x           y             z
-------------------------------------------------------------------------------
   1 Tb    x       0.6469     -0.0067      0.0000
           y       0.0067      0.6469      0.0000
           z       0.0000      0.0000      0.6543
-------------------------------------------------------------------------------
   2 Ba    x       2.1257      0.0000      0.0000
           y       0.0000      2.1257      0.0000
           z       0.0000      0.0000      2.1563
-------------------------------------------------------------------------------
   3 O     x      -1.0529      0.0000      0.0000
           y       0.0000     -0.7956      0.1984
           z       0.0000      0.1996     -0.9369
-------------------------------------------------------------------------------




  Elastic Constant Matrix: (Units=GPa)

-------------------------------------------------------------------------------
  Indices      1         2         3         4         5         6    
-------------------------------------------------------------------------------
       1    116.6632   28.9377   52.6425  -31.8605    0.0000    0.0000
       2     28.9377  116.6632   52.6425   31.8605    0.0000    0.0000
       3     52.6425   52.6425   81.2571    0.0000    0.0000    0.0000
       4    -31.8605   31.8605    0.0000   56.0388    0.0000    0.0000
       5      0.0000    0.0000    0.0000    0.0000   56.0388  -31.8605
       6      0.0000    0.0000    0.0000    0.0000  -31.8605   43.8628
-------------------------------------------------------------------------------


  Elastic Compliance Matrix: (Units=1/GPa)

-------------------------------------------------------------------------------
  Indices      1         2         3         4         5         6    
-------------------------------------------------------------------------------
       1    0.016170 -0.003249 -0.008371  0.011040  0.000000  0.000000
       2   -0.003249  0.016170 -0.008371 -0.011040  0.000000  0.000000
       3   -0.008371 -0.008371  0.023153  0.000000  0.000000  0.000000
       4    0.011040 -0.011040  0.000000  0.030399  0.000000  0.000000
       5    0.000000  0.000000  0.000000  0.000000  0.030399  0.022081
       6    0.000000  0.000000  0.000000  0.000000  0.022081  0.038837
-------------------------------------------------------------------------------

  Mechanical properties :

-------------------------------------------------------------------------------
  Convention :                    Reuss         Voigt         Hill
-------------------------------------------------------------------------------
  Bulk  Modulus (GPa)     =      64.46907      64.78099      64.62503
  Shear Modulus (GPa)     =      24.96522      43.21212      34.08867
-------------------------------------------------------------------------------
  Velocity S-wave (km/s)  =       1.75618       2.31049       2.05214
  Velocity P-wave (km/s)  =       3.47514       3.88854       3.68764
-------------------------------------------------------------------------------
  Compressibility (1/GPa) =    0.01551131
-------------------------------------------------------------------------------
  Stress axis :                     x             y             z
-------------------------------------------------------------------------------
  Youngs Moduli (GPa)     =      61.84342      61.84342      43.19090
-------------------------------------------------------------------------------
  Poissons Ratio (x)      =                     0.20090       0.36155
  Poissons Ratio (y)      =       0.20090                     0.36155
  Poissons Ratio (z)      =       0.51769       0.51769
-------------------------------------------------------------------------------


  Piezoelectric Strain Matrix: (Units=C/m**2)

-------------------------------------------------------------------------------
  Indices      1         2         3         4         5         6    
-------------------------------------------------------------------------------
       x     0.00000   0.00000   0.00000   0.00000   0.00000   0.00000
       y     0.00000   0.00000   0.00000   0.00000   0.00000   0.00000
       z     0.00000   0.00000   0.00000   0.00000   0.00000   0.00000
-------------------------------------------------------------------------------


  Piezoelectric Stress Matrix: (Units=10**-11 C/N)

-------------------------------------------------------------------------------
  Indices      1         2         3         4         5         6    
-------------------------------------------------------------------------------
       x     0.00000   0.00000   0.00000   0.00000   0.00000   0.00000
       y     0.00000   0.00000   0.00000   0.00000   0.00000   0.00000
       z     0.00000   0.00000   0.00000   0.00000   0.00000   0.00000
-------------------------------------------------------------------------------


  Static dielectric constant tensor : 

-------------------------------------------------------------------------------
              x         y         z
-------------------------------------------------------------------------------
       x    -9.82406   0.00000   0.00000
       y     0.00000  -9.82406   0.00000
       z     0.00000   0.00000  -5.10481
--------------------------------------------------------------------------------

  High frequency dielectric constant tensor : 

-------------------------------------------------------------------------------
              x         y         z
-------------------------------------------------------------------------------
       x     1.59746   0.00000   0.00000
       y     0.00000   1.59746   0.00000
       z     0.00000   0.00000   1.60398
-------------------------------------------------------------------------------

  Static refractive indices : 

-------------------------------------------------------------------------------
    1 =   -3.13434      2 =   -3.13434      3 =   -2.25938
-------------------------------------------------------------------------------

  High frequency refractive indices : 

-------------------------------------------------------------------------------
    1 =    1.26391      2 =    1.26391      3 =    1.26648
-------------------------------------------------------------------------------


  Time to end of optimisation =       0.0676 seconds


  Peak dynamic memory used =       0.57 MB 


  Timing analysis for GULP :

--------------------------------------------------------------------------------
  Task / Subroutine                                          Time (Seconds)
--------------------------------------------------------------------------------
  Calculation of reciprocal space energy and derivatives          0.0009
  Calculation of reciprocal space energy using symmetry           0.0015
  Calculation of real space energy and derivatives                0.0142
  Calculation of real space energy using symmetry                 0.0474
  Symmetry generation of equivalent positions                     0.0003
--------------------------------------------------------------------------------
  Total CPU time                                                  0.0676
--------------------------------------------------------------------------------


  CIF file written as perov.cif                                               


  Job Finished at 09:29.23  6th April      2017                               

