********************************************************************************
*                       GENERAL UTILITY LATTICE PROGRAM                        *
*                                 Julian Gale                                  *
*                      Nanochemistry Research Institute                        *
*                           Department of Chemistry                            *
*                    Curtin University, Western Australia                      *
********************************************************************************
* Version = 4.3.2 * Last modified =  3rd March 2015                            *
********************************************************************************
*  optimise     - perform optimisation run                                     *
*  cell_only    - only optimise unit cell                                      *
*  property     - calculate properties for final geometry                      *
********************************************************************************

  Job Started  at 09:29.19  6th April      2017                               

  Number of CPUs =     1


  Total number of configurations input =   1

********************************************************************************
*  Input for Configuration =   1                                               *
********************************************************************************

  Formula = Tb2Ba2O6                                                    

  Number of irreducible atoms/shells =       4


  Total number atoms/shells =      16

  Dimensionality = 3               :  Bulk   


  Symmetry :

  Crystal family                   :  Hexagonal   
  Crystal class  (Groth - 1921)    :  Ditrigonal Scalenohedral             

  Space group (centrosymmetric)    :  R -3 C          

  Patterson group                  :  R -3 m   

  Cartesian lattice vectors (Angstroms) :

        3.039900    1.755087    4.922700
       -3.039900    1.755087    4.922700
        0.000000   -3.510174    4.922700

  Primitive cell parameters :            Full cell parameters :

  a =   6.0460    alpha =  60.3700       a =   6.0798    alpha =  90.0000
  b =   6.0460    beta  =  60.3700       b =   6.0798    beta  =  90.0000
  c =   6.0460    gamma =  60.3700       c =  14.7681    gamma = 120.0000

  Initial volumes (Angstroms**3):

  Primitive cell =         157.584170    Full cell =         472.752509

  Temperature of configuration =  0.000     K 

  Pressure of configuration =         0.000 GPa 

  Fractional coordinates of asymmetric unit :

--------------------------------------------------------------------------------
   No.  Atomic       x           y          z         Charge      Occupancy
        Label      (Frac)      (Frac)     (Frac)        (e)         (Frac)  
--------------------------------------------------------------------------------
      1 Tb    c    0.000000    0.000000    0.000000     0.70000    1.000000    
      2 Ba    c    0.000000    0.000000    0.250000     1.90000    1.000000    
      3 O     c    0.462400    0.000000    0.250000     0.37800    1.000000    
      4 O     s    0.462400    0.000000    0.250000    -1.24467    1.000000    
--------------------------------------------------------------------------------


  Constraints : 

--------------------------------------------------------------------------------
  Constraint no.      Unconstrained     Constrained    Coefficient    Offset
                         Variable         Variable
--------------------------------------------------------------------------------
           1              Strain 1        Strain 2       1.00000      0.0000
--------------------------------------------------------------------------------


********************************************************************************
*  General input information                                                   *
********************************************************************************

  Species output for all configurations : 

--------------------------------------------------------------------------------
  Species    Type    Atomic    Atomic    Charge       Radii (Angs)     Library
                     Number     Mass       (e)     Cova   Ionic  VDW   Symbol
--------------------------------------------------------------------------------
    Tb       Core       65     158.93   0.700000   1.760  0.000  2.630          
    Ba       Core       56     137.33   1.900000   1.340  0.000  2.000          
    O        Core        8      16.00   0.378000   0.730  0.000  1.360          
    O        Shell       8       0.00  -1.244667   0.730  0.000  1.360          
--------------------------------------------------------------------------------


  Lattice summation method               =    Ewald          (3-D)
                                         =    Parry          (2-D)
                                         =    Saunders et al (1-D)
  Accuracy factor for lattice sums       =   12.000


  Time limit = Infinity

  Maximum range for interatomic potentials =    100000.000000 Angstroms

  General interatomic potentials :

--------------------------------------------------------------------------------
Atom  Types   Potential         A         B         C         D     Cutoffs(Ang)
  1     2                                                            Min    Max 
--------------------------------------------------------------------------------
Ba   c Ba   c Buckingham    0.219E+04 0.192      0.00      0.00     0.000 20.000
Tb   c O    s Buckingham    0.148E+04 0.266      0.00      0.00     0.000 20.000
O    s O    s Buckingham     912.     0.271      13.8      0.00     0.000 20.000
Ba   c O    s Buckingham    0.352E+04 0.267      0.00      0.00     0.000 20.000
O    c O    s Spring (c-s)   19.9      0.00      0.00      0.00     0.000  0.800
--------------------------------------------------------------------------------

********************************************************************************
*  Output for configuration   1                                                *
********************************************************************************


  Components of energy : 

--------------------------------------------------------------------------------
  Interatomic potentials     =           6.37949580 eV
  Monopole - monopole (real) =         -14.96124768 eV
  Monopole - monopole (recip)=         -41.40571148 eV
  Monopole - monopole (total)=         -56.36695916 eV
--------------------------------------------------------------------------------
  Total lattice energy : 
    Primitive unit cell      =         -49.98746336 eV
    Non-primitive unit cell  =        -149.96239009 eV
--------------------------------------------------------------------------------
  Total lattice energy (in kJmol-1): 
    Primitive unit cell      =           -4823.0261 kJ/(mole unit cells)
    Non-primitive unit cell  =          -14469.0783 kJ/(mole unit cells)
--------------------------------------------------------------------------------


  Number of variables =        2

  Maximum number of calculations  =          1000
  Maximum Hessian update interval =            10
  Maximum step size               =   1.000000000
  Maximum parameter tolerance     =   0.000010000
  Maximum function  tolerance     =   0.000010000
  Maximum gradient  tolerance     =   0.001000000
  Maximum gradient  component     =   0.010000000

  Symmetry constrained optimisation

  Symmetry used for second derivatives

  Cell parameters to be optimised using strains

  Newton-Raphson optimiser to be used

  BFGS hessian update to be used

  Start of bulk optimisation :

  Cycle:      0 Energy:       -49.987463  Gnorm:      0.274735  CPU:    0.009
  ** Hessian calculated **
  Cycle:      1 Energy:       -49.988199  Gnorm:      0.002966  CPU:    0.021


  **** Optimisation achieved ****


  Final energy =     -49.98819966 eV
  Final Gnorm  =       0.00042139

  Components of energy : 

--------------------------------------------------------------------------------
  Interatomic potentials     =           6.27670544 eV
  Monopole - monopole (real) =         -14.92863645 eV
  Monopole - monopole (recip)=         -41.33626866 eV
  Monopole - monopole (total)=         -56.26490510 eV
--------------------------------------------------------------------------------
  Total lattice energy : 
    Primitive unit cell      =         -49.98819966 eV
    Non-primitive unit cell  =        -149.96459898 eV
--------------------------------------------------------------------------------
  Total lattice energy (in kJmol-1): 
    Primitive unit cell      =           -4823.0971 kJ/(mole unit cells)
    Non-primitive unit cell  =          -14469.2914 kJ/(mole unit cells)
--------------------------------------------------------------------------------

  Final asymmetric unit coordinates :

--------------------------------------------------------------------------------
   No.  Atomic        x           y           z         Radius
        Label       (Frac)      (Frac)      (Frac)       (Angs) 
--------------------------------------------------------------------------------
     1  Tb    c     0.000000    0.000000    0.000000    0.000000
     2  Ba    c     0.000000    0.000000    0.250000    0.000000
     3  O     c     0.462400    0.000000    0.250000    0.000000
     4  O     s     0.462400    0.000000    0.250000    0.000000
--------------------------------------------------------------------------------

  Final Cartesian lattice vectors (Angstroms) :

        3.053753    1.763085    4.902767
       -3.053753    1.763085    4.902767
        0.000000   -3.526170    4.902767


  Final cell parameters and derivatives :

--------------------------------------------------------------------------------
       a            6.039123 Angstrom     dE/de1(xx)     0.000551 eV/strain
       b            6.039123 Angstrom     dE/de2(yy)     0.000000 eV/strain
       c            6.039123 Angstrom     dE/de3(zz)     0.000637 eV/strain
       alpha       60.750572 Degrees      dE/de4(yz)     0.000000 eV/strain
       beta        60.750572 Degrees      dE/de5(xz)     0.000000 eV/strain
       gamma       60.750572 Degrees      dE/de6(xy)     0.000000 eV/strain
--------------------------------------------------------------------------------

  Primitive cell volume =           158.379766 Angs**3

  Density of cell =      7.218931 g/cm**3

  Non-primitive lattice parameters :

  a    =     6.107506  b   =     6.107506  c    =    14.708302
  alpha=    90.000000  beta=    90.000000  gamma=   120.000000

  Non-primitive cell volume =           475.139297 Angs**3


  Final internal derivatives :

--------------------------------------------------------------------------------
   No.  Atomic          a             b             c           Radius
        Label          (eV)          (eV)          (eV)        (eV/Angs)
--------------------------------------------------------------------------------
      1 Tb    c       0.000000      0.000000      0.000000      0.000000
      2 Ba    c       0.000000      0.000000      0.000000      0.000000
      3 O     c       0.000000      0.000000      0.000000      0.000000
      4 O     s       0.000000      0.000000      0.000000      0.000000
--------------------------------------------------------------------------------
  Maximum abs         0.000000      0.000000      0.000000      0.000000
--------------------------------------------------------------------------------


  Born effective charge tensors : 

-------------------------------------------------------------------------------
  Atom             x           y             z
-------------------------------------------------------------------------------
   1 Tb    x       0.3110     -0.0167      0.0000
           y       0.0167      0.3110      0.0000
           z       0.0000      0.0000      0.3338
-------------------------------------------------------------------------------
   2 Ba    x       2.1563      0.0000      0.0000
           y       0.0000      2.1563      0.0000
           z       0.0000      0.0000      2.1809
-------------------------------------------------------------------------------
   3 O     x      -0.9808      0.0000      0.0000
           y       0.0000     -0.6640      0.2374
           z       0.0000      0.2424     -0.8382
-------------------------------------------------------------------------------




  Elastic Constant Matrix: (Units=GPa)

-------------------------------------------------------------------------------
  Indices      1         2         3         4         5         6    
-------------------------------------------------------------------------------
       1     71.8898   22.5311   42.4233  -30.8203    0.0000    0.0000
       2     22.5311   71.8898   42.4233   30.8203    0.0000    0.0000
       3     42.4233   42.4233   43.2883    0.0000    0.0000    0.0000
       4    -30.8203   30.8203    0.0000   43.4343    0.0000    0.0000
       5      0.0000    0.0000    0.0000    0.0000   43.4343  -30.8203
       6      0.0000    0.0000    0.0000    0.0000  -30.8203   24.6794
-------------------------------------------------------------------------------


  Elastic Compliance Matrix: (Units=1/GPa)

-------------------------------------------------------------------------------
  Indices      1         2         3         4         5         6    
-------------------------------------------------------------------------------
       1    0.133340 -0.044608 -0.086959  0.126269  0.000000  0.000000
       2   -0.044608  0.133340 -0.086959 -0.126269  0.000000  0.000000
       3   -0.086959 -0.086959  0.193543  0.000000  0.000000  0.000000
       4    0.126269 -0.126269  0.000000  0.202220  0.000000  0.000000
       5    0.000000  0.000000  0.000000  0.000000  0.202220  0.252537
       6    0.000000  0.000000  0.000000  0.000000  0.252537  0.355895
-------------------------------------------------------------------------------

  Mechanical properties :

-------------------------------------------------------------------------------
  Convention :                    Reuss         Voigt         Hill
-------------------------------------------------------------------------------
  Bulk  Modulus (GPa)     =      43.15593      44.64703      43.90148
  Shear Modulus (GPa)     =       3.00241      27.62228      15.31235
-------------------------------------------------------------------------------
  Velocity S-wave (km/s)  =       0.64491       1.95611       1.45641
  Velocity P-wave (km/s)  =       2.55592       3.35954       2.98490
-------------------------------------------------------------------------------
  Compressibility (1/GPa) =    0.02317179
-------------------------------------------------------------------------------
  Stress axis :                     x             y             z
-------------------------------------------------------------------------------
  Youngs Moduli (GPa)     =       7.49965       7.49965       5.16682
-------------------------------------------------------------------------------
  Poissons Ratio (x)      =                     0.33454       0.44930
  Poissons Ratio (y)      =       0.33454                     0.44930
  Poissons Ratio (z)      =       0.65216       0.65216
-------------------------------------------------------------------------------


  Piezoelectric Strain Matrix: (Units=C/m**2)

-------------------------------------------------------------------------------
  Indices      1         2         3         4         5         6    
-------------------------------------------------------------------------------
       x     0.00000   0.00000   0.00000   0.00000   0.00000   0.00000
       y     0.00000   0.00000   0.00000   0.00000   0.00000   0.00000
       z     0.00000   0.00000   0.00000   0.00000   0.00000   0.00000
-------------------------------------------------------------------------------


  Piezoelectric Stress Matrix: (Units=10**-11 C/N)

-------------------------------------------------------------------------------
  Indices      1         2         3         4         5         6    
-------------------------------------------------------------------------------
       x     0.00000   0.00000   0.00000   0.00000   0.00000   0.00000
       y     0.00000   0.00000   0.00000   0.00000   0.00000   0.00000
       z     0.00000   0.00000   0.00000   0.00000   0.00000   0.00000
-------------------------------------------------------------------------------


  Static dielectric constant tensor : 

-------------------------------------------------------------------------------
              x         y         z
-------------------------------------------------------------------------------
       x    -3.76953   0.00000   0.00000
       y     0.00000  -3.76953   0.00000
       z     0.00000   0.00000  -2.62875
--------------------------------------------------------------------------------

  High frequency dielectric constant tensor : 

-------------------------------------------------------------------------------
              x         y         z
-------------------------------------------------------------------------------
       x     1.54268   0.00000   0.00000
       y     0.00000   1.54268   0.00000
       z     0.00000   0.00000   1.55093
-------------------------------------------------------------------------------

  Static refractive indices : 

-------------------------------------------------------------------------------
    1 =   -1.94153      2 =   -1.94153      3 =   -1.62134
-------------------------------------------------------------------------------

  High frequency refractive indices : 

-------------------------------------------------------------------------------
    1 =    1.24205      2 =    1.24205      3 =    1.24536
-------------------------------------------------------------------------------


  Time to end of optimisation =       0.0470 seconds


  Peak dynamic memory used =       0.57 MB 


  Timing analysis for GULP :

--------------------------------------------------------------------------------
  Task / Subroutine                                          Time (Seconds)
--------------------------------------------------------------------------------
  Calculation of reciprocal space energy and derivatives          0.0008
  Calculation of reciprocal space energy using symmetry           0.0009
  Calculation of real space energy and derivatives                0.0139
  Calculation of real space energy using symmetry                 0.0281
  Symmetry generation of equivalent positions                     0.0003
--------------------------------------------------------------------------------
  Total CPU time                                                  0.0471
--------------------------------------------------------------------------------


  CIF file written as perov.cif                                               


  Job Finished at 09:29.19  6th April      2017                               

