********************************************************************************
*                       GENERAL UTILITY LATTICE PROGRAM                        *
*                                 Julian Gale                                  *
*                      Nanochemistry Research Institute                        *
*                           Department of Chemistry                            *
*                    Curtin University, Western Australia                      *
********************************************************************************
* Version = 4.3.2 * Last modified =  3rd March 2015                            *
********************************************************************************
*  optimise     - perform optimisation run                                     *
*  cell_only    - only optimise unit cell                                      *
*  property     - calculate properties for final geometry                      *
********************************************************************************

  Job Started  at 09:29.22  6th April      2017                               

  Number of CPUs =     1


  Total number of configurations input =   1

********************************************************************************
*  Input for Configuration =   1                                               *
********************************************************************************

  Formula = Tb2Ba2O6                                                    

  Number of irreducible atoms/shells =       4


  Total number atoms/shells =      16

  Dimensionality = 3               :  Bulk   


  Symmetry :

  Crystal family                   :  Hexagonal   
  Crystal class  (Groth - 1921)    :  Ditrigonal Scalenohedral             

  Space group (centrosymmetric)    :  R -3 C          

  Patterson group                  :  R -3 m   

  Cartesian lattice vectors (Angstroms) :

        3.039900    1.755087    4.922700
       -3.039900    1.755087    4.922700
        0.000000   -3.510174    4.922700

  Primitive cell parameters :            Full cell parameters :

  a =   6.0460    alpha =  60.3700       a =   6.0798    alpha =  90.0000
  b =   6.0460    beta  =  60.3700       b =   6.0798    beta  =  90.0000
  c =   6.0460    gamma =  60.3700       c =  14.7681    gamma = 120.0000

  Initial volumes (Angstroms**3):

  Primitive cell =         157.584170    Full cell =         472.752509

  Temperature of configuration =  0.000     K 

  Pressure of configuration =         0.000 GPa 

  Fractional coordinates of asymmetric unit :

--------------------------------------------------------------------------------
   No.  Atomic       x           y          z         Charge      Occupancy
        Label      (Frac)      (Frac)     (Frac)        (e)         (Frac)  
--------------------------------------------------------------------------------
      1 Tb    c    0.000000    0.000000    0.000000     1.00000    1.000000    
      2 Ba    c    0.000000    0.000000    0.250000     1.80000    1.000000    
      3 O     c    0.462400    0.000000    0.250000     0.37800    1.000000    
      4 O     s    0.462400    0.000000    0.250000    -1.31133    1.000000    
--------------------------------------------------------------------------------


  Constraints : 

--------------------------------------------------------------------------------
  Constraint no.      Unconstrained     Constrained    Coefficient    Offset
                         Variable         Variable
--------------------------------------------------------------------------------
           1              Strain 1        Strain 2       1.00000      0.0000
--------------------------------------------------------------------------------


********************************************************************************
*  General input information                                                   *
********************************************************************************

  Species output for all configurations : 

--------------------------------------------------------------------------------
  Species    Type    Atomic    Atomic    Charge       Radii (Angs)     Library
                     Number     Mass       (e)     Cova   Ionic  VDW   Symbol
--------------------------------------------------------------------------------
    Tb       Core       65     158.93   1.000000   1.760  0.000  2.630          
    Ba       Core       56     137.33   1.800000   1.340  0.000  2.000          
    O        Core        8      16.00   0.378000   0.730  0.000  1.360          
    O        Shell       8       0.00  -1.311333   0.730  0.000  1.360          
--------------------------------------------------------------------------------


  Lattice summation method               =    Ewald          (3-D)
                                         =    Parry          (2-D)
                                         =    Saunders et al (1-D)
  Accuracy factor for lattice sums       =   12.000


  Time limit = Infinity

  Maximum range for interatomic potentials =    100000.000000 Angstroms

  General interatomic potentials :

--------------------------------------------------------------------------------
Atom  Types   Potential         A         B         C         D     Cutoffs(Ang)
  1     2                                                            Min    Max 
--------------------------------------------------------------------------------
Ba   c Ba   c Buckingham    0.219E+04 0.192      0.00      0.00     0.000 20.000
Tb   c O    s Buckingham    0.148E+04 0.266      0.00      0.00     0.000 20.000
O    s O    s Buckingham     912.     0.271      13.8      0.00     0.000 20.000
Ba   c O    s Buckingham    0.352E+04 0.267      0.00      0.00     0.000 20.000
O    c O    s Spring (c-s)   22.0      0.00      0.00      0.00     0.000  0.800
--------------------------------------------------------------------------------

********************************************************************************
*  Output for configuration   1                                                *
********************************************************************************


  Components of energy : 

--------------------------------------------------------------------------------
  Interatomic potentials     =           6.37949580 eV
  Monopole - monopole (real) =         -18.89094474 eV
  Monopole - monopole (recip)=         -45.08670449 eV
  Monopole - monopole (total)=         -63.97764923 eV
--------------------------------------------------------------------------------
  Total lattice energy : 
    Primitive unit cell      =         -57.59815343 eV
    Non-primitive unit cell  =        -172.79446029 eV
--------------------------------------------------------------------------------
  Total lattice energy (in kJmol-1): 
    Primitive unit cell      =           -5557.3413 kJ/(mole unit cells)
    Non-primitive unit cell  =          -16672.0240 kJ/(mole unit cells)
--------------------------------------------------------------------------------


  Number of variables =        2

  Maximum number of calculations  =          1000
  Maximum Hessian update interval =            10
  Maximum step size               =   1.000000000
  Maximum parameter tolerance     =   0.000010000
  Maximum function  tolerance     =   0.000010000
  Maximum gradient  tolerance     =   0.001000000
  Maximum gradient  component     =   0.010000000

  Symmetry constrained optimisation

  Symmetry used for second derivatives

  Cell parameters to be optimised using strains

  Newton-Raphson optimiser to be used

  BFGS hessian update to be used

  Start of bulk optimisation :

  Cycle:      0 Energy:       -57.598153  Gnorm:      2.605915  CPU:    0.009
  ** Hessian calculated **
  Cycle:      1 Energy:       -57.656116  Gnorm:      0.022609  CPU:    0.025
  Cycle:      2 Energy:       -57.656121  Gnorm:      0.001709  CPU:    0.036


  **** Optimisation achieved ****


  Final energy =     -57.65612105 eV
  Final Gnorm  =       0.00000341

  Components of energy : 

--------------------------------------------------------------------------------
  Interatomic potentials     =           7.38042742 eV
  Monopole - monopole (real) =         -19.20629747 eV
  Monopole - monopole (recip)=         -45.83025100 eV
  Monopole - monopole (total)=         -65.03654847 eV
--------------------------------------------------------------------------------
  Total lattice energy : 
    Primitive unit cell      =         -57.65612105 eV
    Non-primitive unit cell  =        -172.96836315 eV
--------------------------------------------------------------------------------
  Total lattice energy (in kJmol-1): 
    Primitive unit cell      =           -5562.9343 kJ/(mole unit cells)
    Non-primitive unit cell  =          -16688.8030 kJ/(mole unit cells)
--------------------------------------------------------------------------------

  Final asymmetric unit coordinates :

--------------------------------------------------------------------------------
   No.  Atomic        x           y           z         Radius
        Label       (Frac)      (Frac)      (Frac)       (Angs) 
--------------------------------------------------------------------------------
     1  Tb    c     0.000000    0.000000    0.000000    0.000000
     2  Ba    c     0.000000    0.000000    0.250000    0.000000
     3  O     c     0.462400    0.000000    0.250000    0.000000
     4  O     s     0.462400    0.000000    0.250000    0.000000
--------------------------------------------------------------------------------

  Final Cartesian lattice vectors (Angstroms) :

        2.986656    1.724346    4.855602
       -2.986656    1.724346    4.855602
        0.000000   -3.448693    4.855602


  Final cell parameters and derivatives :

--------------------------------------------------------------------------------
       a            5.955699 Angstrom     dE/de1(xx)    -0.000007 eV/strain
       b            5.955699 Angstrom     dE/de2(yy)     0.000000 eV/strain
       c            5.955699 Angstrom     dE/de3(zz)     0.000001 eV/strain
       alpha       60.195741 Degrees      dE/de4(yz)     0.000000 eV/strain
       beta        60.195741 Degrees      dE/de5(xz)     0.000000 eV/strain
       gamma       60.195741 Degrees      dE/de6(xy)     0.000000 eV/strain
--------------------------------------------------------------------------------

  Primitive cell volume =           150.038941 Angs**3

  Density of cell =      7.620239 g/cm**3

  Non-primitive lattice parameters :

  a    =     5.973311  b   =     5.973311  c    =    14.566806
  alpha=    90.000000  beta=    90.000000  gamma=   120.000000

  Non-primitive cell volume =           450.116823 Angs**3


  Final internal derivatives :

--------------------------------------------------------------------------------
   No.  Atomic          a             b             c           Radius
        Label          (eV)          (eV)          (eV)        (eV/Angs)
--------------------------------------------------------------------------------
      1 Tb    c       0.000000      0.000000      0.000000      0.000000
      2 Ba    c       0.000000      0.000000      0.000000      0.000000
      3 O     c       0.000000      0.000000      0.000000      0.000000
      4 O     s       0.000000      0.000000      0.000000      0.000000
--------------------------------------------------------------------------------
  Maximum abs         0.000000      0.000000      0.000000      0.000000
--------------------------------------------------------------------------------


  Born effective charge tensors : 

-------------------------------------------------------------------------------
  Atom             x           y             z
-------------------------------------------------------------------------------
   1 Tb    x       0.5846     -0.0072      0.0000
           y       0.0072      0.5846      0.0000
           z       0.0000      0.0000      0.5925
-------------------------------------------------------------------------------
   2 Ba    x       2.0119      0.0000      0.0000
           y       0.0000      2.0119      0.0000
           z       0.0000      0.0000      2.0380
-------------------------------------------------------------------------------
   3 O     x      -0.9910      0.0000      0.0000
           y       0.0000     -0.7400      0.1919
           z       0.0000      0.1933     -0.8768
-------------------------------------------------------------------------------




  Elastic Constant Matrix: (Units=GPa)

-------------------------------------------------------------------------------
  Indices      1         2         3         4         5         6    
-------------------------------------------------------------------------------
       1     93.6546   25.0111   44.4537  -27.3503    0.0000    0.0000
       2     25.0111   93.6546   44.4537   27.3503    0.0000    0.0000
       3     44.4537   44.4537   64.4735    0.0000    0.0000    0.0000
       4    -27.3503   27.3503    0.0000   46.7043    0.0000    0.0000
       5      0.0000    0.0000    0.0000    0.0000   46.7043  -27.3503
       6      0.0000    0.0000    0.0000    0.0000  -27.3503   34.3217
-------------------------------------------------------------------------------


  Elastic Compliance Matrix: (Units=1/GPa)

-------------------------------------------------------------------------------
  Indices      1         2         3         4         5         6    
-------------------------------------------------------------------------------
       1    0.022373 -0.004941 -0.012019  0.015996  0.000000  0.000000
       2   -0.004941  0.022373 -0.012019 -0.015996  0.000000  0.000000
       3   -0.012019 -0.012019  0.032085  0.000000  0.000000  0.000000
       4    0.015996 -0.015996  0.000000  0.040145  0.000000  0.000000
       5    0.000000  0.000000  0.000000  0.000000  0.040145  0.031991
       6    0.000000  0.000000  0.000000  0.000000  0.031991  0.054629
-------------------------------------------------------------------------------

  Mechanical properties :

-------------------------------------------------------------------------------
  Convention :                    Reuss         Voigt         Hill
-------------------------------------------------------------------------------
  Bulk  Modulus (GPa)     =      52.98913      53.29108      53.14011
  Shear Modulus (GPa)     =      18.11585      34.73704      26.42644
-------------------------------------------------------------------------------
  Velocity S-wave (km/s)  =       1.54186       2.13507       1.86224
  Velocity P-wave (km/s)  =       3.18175       3.61544       3.40550
-------------------------------------------------------------------------------
  Compressibility (1/GPa) =    0.01887179
-------------------------------------------------------------------------------
  Stress axis :                     x             y             z
-------------------------------------------------------------------------------
  Youngs Moduli (GPa)     =      44.69600      44.69600      31.16769
-------------------------------------------------------------------------------
  Poissons Ratio (x)      =                     0.22085       0.37461
  Poissons Ratio (y)      =       0.22085                     0.37461
  Poissons Ratio (z)      =       0.53721       0.53721
-------------------------------------------------------------------------------


  Piezoelectric Strain Matrix: (Units=C/m**2)

-------------------------------------------------------------------------------
  Indices      1         2         3         4         5         6    
-------------------------------------------------------------------------------
       x     0.00000   0.00000   0.00000   0.00000   0.00000   0.00000
       y     0.00000   0.00000   0.00000   0.00000   0.00000   0.00000
       z     0.00000   0.00000   0.00000   0.00000   0.00000   0.00000
-------------------------------------------------------------------------------


  Piezoelectric Stress Matrix: (Units=10**-11 C/N)

-------------------------------------------------------------------------------
  Indices      1         2         3         4         5         6    
-------------------------------------------------------------------------------
       x     0.00000   0.00000   0.00000   0.00000   0.00000   0.00000
       y     0.00000   0.00000   0.00000   0.00000   0.00000   0.00000
       z     0.00000   0.00000   0.00000   0.00000   0.00000   0.00000
-------------------------------------------------------------------------------


  Static dielectric constant tensor : 

-------------------------------------------------------------------------------
              x         y         z
-------------------------------------------------------------------------------
       x    -8.04952   0.00000   0.00000
       y     0.00000  -8.04952   0.00000
       z     0.00000   0.00000  -4.50503
--------------------------------------------------------------------------------

  High frequency dielectric constant tensor : 

-------------------------------------------------------------------------------
              x         y         z
-------------------------------------------------------------------------------
       x     1.56403   0.00000   0.00000
       y     0.00000   1.56403   0.00000
       z     0.00000   0.00000   1.56985
-------------------------------------------------------------------------------

  Static refractive indices : 

-------------------------------------------------------------------------------
    1 =   -2.83717      2 =   -2.83717      3 =   -2.12250
-------------------------------------------------------------------------------

  High frequency refractive indices : 

-------------------------------------------------------------------------------
    1 =    1.25061      2 =    1.25061      3 =    1.25294
-------------------------------------------------------------------------------


  Time to end of optimisation =       0.0636 seconds


  Peak dynamic memory used =       0.57 MB 


  Timing analysis for GULP :

--------------------------------------------------------------------------------
  Task / Subroutine                                          Time (Seconds)
--------------------------------------------------------------------------------
  Calculation of reciprocal space energy and derivatives          0.0011
  Calculation of reciprocal space energy using symmetry           0.0014
  Calculation of real space energy and derivatives                0.0144
  Calculation of real space energy using symmetry                 0.0429
  Symmetry generation of equivalent positions                     0.0003
--------------------------------------------------------------------------------
  Total CPU time                                                  0.0636
--------------------------------------------------------------------------------


  CIF file written as perov.cif                                               


  Job Finished at 09:29.22  6th April      2017                               

