********************************************************************************
*                       GENERAL UTILITY LATTICE PROGRAM                        *
*                                 Julian Gale                                  *
*                      Nanochemistry Research Institute                        *
*                           Department of Chemistry                            *
*                    Curtin University, Western Australia                      *
********************************************************************************
* Version = 4.3.2 * Last modified =  3rd March 2015                            *
********************************************************************************
*  optimise     - perform optimisation run                                     *
*  cell_only    - only optimise unit cell                                      *
*  property     - calculate properties for final geometry                      *
********************************************************************************

  Job Started  at 09:29.23  6th April      2017                               

  Number of CPUs =     1


  Total number of configurations input =   1

********************************************************************************
*  Input for Configuration =   1                                               *
********************************************************************************

  Formula = Tb2Ba2O6                                                    

  Number of irreducible atoms/shells =       4


  Total number atoms/shells =      16

  Dimensionality = 3               :  Bulk   


  Symmetry :

  Crystal family                   :  Hexagonal   
  Crystal class  (Groth - 1921)    :  Ditrigonal Scalenohedral             

  Space group (centrosymmetric)    :  R -3 C          

  Patterson group                  :  R -3 m   

  Cartesian lattice vectors (Angstroms) :

        3.039900    1.755087    4.922700
       -3.039900    1.755087    4.922700
        0.000000   -3.510174    4.922700

  Primitive cell parameters :            Full cell parameters :

  a =   6.0460    alpha =  60.3700       a =   6.0798    alpha =  90.0000
  b =   6.0460    beta  =  60.3700       b =   6.0798    beta  =  90.0000
  c =   6.0460    gamma =  60.3700       c =  14.7681    gamma = 120.0000

  Initial volumes (Angstroms**3):

  Primitive cell =         157.584170    Full cell =         472.752509

  Temperature of configuration =  0.000     K 

  Pressure of configuration =         0.000 GPa 

  Fractional coordinates of asymmetric unit :

--------------------------------------------------------------------------------
   No.  Atomic       x           y          z         Charge      Occupancy
        Label      (Frac)      (Frac)     (Frac)        (e)         (Frac)  
--------------------------------------------------------------------------------
      1 Tb    c    0.000000    0.000000    0.000000     1.20000    1.000000    
      2 Ba    c    0.000000    0.000000    0.250000     1.70000    1.000000    
      3 O     c    0.462400    0.000000    0.250000     0.37800    1.000000    
      4 O     s    0.462400    0.000000    0.250000    -1.34467    1.000000    
--------------------------------------------------------------------------------


  Constraints : 

--------------------------------------------------------------------------------
  Constraint no.      Unconstrained     Constrained    Coefficient    Offset
                         Variable         Variable
--------------------------------------------------------------------------------
           1              Strain 1        Strain 2       1.00000      0.0000
--------------------------------------------------------------------------------


********************************************************************************
*  General input information                                                   *
********************************************************************************

  Species output for all configurations : 

--------------------------------------------------------------------------------
  Species    Type    Atomic    Atomic    Charge       Radii (Angs)     Library
                     Number     Mass       (e)     Cova   Ionic  VDW   Symbol
--------------------------------------------------------------------------------
    Tb       Core       65     158.93   1.200000   1.760  0.000  2.630          
    Ba       Core       56     137.33   1.700000   1.340  0.000  2.000          
    O        Core        8      16.00   0.378000   0.730  0.000  1.360          
    O        Shell       8       0.00  -1.344667   0.730  0.000  1.360          
--------------------------------------------------------------------------------


  Lattice summation method               =    Ewald          (3-D)
                                         =    Parry          (2-D)
                                         =    Saunders et al (1-D)
  Accuracy factor for lattice sums       =   12.000


  Time limit = Infinity

  Maximum range for interatomic potentials =    100000.000000 Angstroms

  General interatomic potentials :

--------------------------------------------------------------------------------
Atom  Types   Potential         A         B         C         D     Cutoffs(Ang)
  1     2                                                            Min    Max 
--------------------------------------------------------------------------------
Ba   c Ba   c Buckingham    0.219E+04 0.192      0.00      0.00     0.000 20.000
Tb   c O    s Buckingham    0.148E+04 0.266      0.00      0.00     0.000 20.000
O    s O    s Buckingham     912.     0.271      13.8      0.00     0.000 20.000
Ba   c O    s Buckingham    0.352E+04 0.267      0.00      0.00     0.000 20.000
O    c O    s Spring (c-s)   23.2      0.00      0.00      0.00     0.000  0.800
--------------------------------------------------------------------------------

********************************************************************************
*  Output for configuration   1                                                *
********************************************************************************


  Components of energy : 

--------------------------------------------------------------------------------
  Interatomic potentials     =           6.37949580 eV
  Monopole - monopole (real) =         -21.42134250 eV
  Monopole - monopole (recip)=         -47.18541755 eV
  Monopole - monopole (total)=         -68.60676005 eV
--------------------------------------------------------------------------------
  Total lattice energy : 
    Primitive unit cell      =         -62.22726425 eV
    Non-primitive unit cell  =        -186.68179275 eV
--------------------------------------------------------------------------------
  Total lattice energy (in kJmol-1): 
    Primitive unit cell      =           -6003.9798 kJ/(mole unit cells)
    Non-primitive unit cell  =          -18011.9393 kJ/(mole unit cells)
--------------------------------------------------------------------------------


  Number of variables =        2

  Maximum number of calculations  =          1000
  Maximum Hessian update interval =            10
  Maximum step size               =   1.000000000
  Maximum parameter tolerance     =   0.000010000
  Maximum function  tolerance     =   0.000010000
  Maximum gradient  tolerance     =   0.001000000
  Maximum gradient  component     =   0.010000000

  Symmetry constrained optimisation

  Symmetry used for second derivatives

  Cell parameters to be optimised using strains

  Newton-Raphson optimiser to be used

  BFGS hessian update to be used

  Start of bulk optimisation :

  Cycle:      0 Energy:       -62.227264  Gnorm:      4.355419  CPU:    0.009
  ** Hessian calculated **
  Cycle:      1 Energy:       -62.385220  Gnorm:      0.375703  CPU:    0.019
  Cycle:      2 Energy:       -62.386230  Gnorm:      0.045605  CPU:    0.030
  Cycle:      3 Energy:       -62.386245  Gnorm:      0.000019  CPU:    0.040


  **** Optimisation achieved ****


  Final energy =     -62.38624518 eV
  Final Gnorm  =       0.00000012

  Components of energy : 

--------------------------------------------------------------------------------
  Interatomic potentials     =           8.07115826 eV
  Monopole - monopole (real) =         -22.00217712 eV
  Monopole - monopole (recip)=         -48.45522633 eV
  Monopole - monopole (total)=         -70.45740345 eV
--------------------------------------------------------------------------------
  Total lattice energy : 
    Primitive unit cell      =         -62.38624518 eV
    Non-primitive unit cell  =        -187.15873555 eV
--------------------------------------------------------------------------------
  Total lattice energy (in kJmol-1): 
    Primitive unit cell      =           -6019.3190 kJ/(mole unit cells)
    Non-primitive unit cell  =          -18057.9570 kJ/(mole unit cells)
--------------------------------------------------------------------------------

  Final asymmetric unit coordinates :

--------------------------------------------------------------------------------
   No.  Atomic        x           y           z         Radius
        Label       (Frac)      (Frac)      (Frac)       (Angs) 
--------------------------------------------------------------------------------
     1  Tb    c     0.000000    0.000000    0.000000    0.000000
     2  Ba    c     0.000000    0.000000    0.250000    0.000000
     3  O     c     0.462400    0.000000    0.250000    0.000000
     4  O     s     0.462400    0.000000    0.250000    0.000000
--------------------------------------------------------------------------------

  Final Cartesian lattice vectors (Angstroms) :

        2.956140    1.706728    4.807032
       -2.956140    1.706728    4.807032
        0.000000   -3.413457    4.807032


  Final cell parameters and derivatives :

--------------------------------------------------------------------------------
       a            5.895697 Angstrom     dE/de1(xx)     0.000000 eV/strain
       b            5.895697 Angstrom     dE/de2(yy)     0.000000 eV/strain
       c            5.895697 Angstrom     dE/de3(zz)     0.000000 eV/strain
       alpha       60.186188 Degrees      dE/de4(yz)     0.000000 eV/strain
       beta        60.186188 Degrees      dE/de5(xz)     0.000000 eV/strain
       gamma       60.186188 Degrees      dE/de6(xy)     0.000000 eV/strain
--------------------------------------------------------------------------------

  Primitive cell volume =           145.518338 Angs**3

  Density of cell =      7.856965 g/cm**3

  Non-primitive lattice parameters :

  a    =     5.912281  b   =     5.912281  c    =    14.421095
  alpha=    90.000000  beta=    90.000000  gamma=   120.000000

  Non-primitive cell volume =           436.555015 Angs**3


  Final internal derivatives :

--------------------------------------------------------------------------------
   No.  Atomic          a             b             c           Radius
        Label          (eV)          (eV)          (eV)        (eV/Angs)
--------------------------------------------------------------------------------
      1 Tb    c       0.000000      0.000000      0.000000      0.000000
      2 Ba    c       0.000000      0.000000      0.000000      0.000000
      3 O     c       0.000000      0.000000      0.000000      0.000000
      4 O     s       0.000000      0.000000      0.000000      0.000000
--------------------------------------------------------------------------------
  Maximum abs         0.000000      0.000000      0.000000      0.000000
--------------------------------------------------------------------------------


  Born effective charge tensors : 

-------------------------------------------------------------------------------
  Atom             x           y             z
-------------------------------------------------------------------------------
   1 Tb    x       0.7753     -0.0026      0.0000
           y       0.0026      0.7753      0.0000
           z       0.0000      0.0000      0.7798
-------------------------------------------------------------------------------
   2 Ba    x       1.8736      0.0000      0.0000
           y       0.0000      1.8736      0.0000
           z       0.0000      0.0000      1.9034
-------------------------------------------------------------------------------
   3 O     x      -0.9820      0.0000      0.0000
           y       0.0000     -0.7840      0.1553
           z       0.0000      0.1561     -0.8944
-------------------------------------------------------------------------------




  Elastic Constant Matrix: (Units=GPa)

-------------------------------------------------------------------------------
  Indices      1         2         3         4         5         6    
-------------------------------------------------------------------------------
       1    144.2223   -9.1217   44.9053  -44.9048    0.0000    0.0000
       2     -9.1217  144.2223   44.9053   44.9048    0.0000    0.0000
       3     44.9053   44.9053   79.7064    0.0000    0.0000    0.0000
       4    -44.9048   44.9048    0.0000   60.0236    0.0000    0.0000
       5      0.0000    0.0000    0.0000    0.0000   60.0236  -44.9048
       6      0.0000    0.0000    0.0000    0.0000  -44.9048   76.6720
-------------------------------------------------------------------------------


  Elastic Compliance Matrix: (Units=1/GPa)

-------------------------------------------------------------------------------
  Indices      1         2         3         4         5         6    
-------------------------------------------------------------------------------
       1    0.011720  0.000114 -0.006667  0.008683  0.000000  0.000000
       2    0.000114  0.011720 -0.006667 -0.008683  0.000000  0.000000
       3   -0.006667 -0.006667  0.020058  0.000000  0.000000  0.000000
       4    0.008683 -0.008683  0.000000  0.029652  0.000000  0.000000
       5    0.000000  0.000000  0.000000  0.000000  0.029652  0.017367
       6    0.000000  0.000000  0.000000  0.000000  0.017367  0.023214
-------------------------------------------------------------------------------

  Mechanical properties :

-------------------------------------------------------------------------------
  Convention :                    Reuss         Voigt         Hill
-------------------------------------------------------------------------------
  Bulk  Modulus (GPa)     =      58.62372      58.83652      58.73012
  Shear Modulus (GPa)     =      31.61659      58.50800      45.06229
-------------------------------------------------------------------------------
  Velocity S-wave (km/s)  =       2.00600       2.72885       2.39485
  Velocity P-wave (km/s)  =       3.58144       4.17340       3.88870
-------------------------------------------------------------------------------
  Compressibility (1/GPa) =    0.01705794
-------------------------------------------------------------------------------
  Stress axis :                     x             y             z
-------------------------------------------------------------------------------
  Youngs Moduli (GPa)     =      85.32129      85.32129      49.85478
-------------------------------------------------------------------------------
  Poissons Ratio (x)      =                    -0.00969       0.33238
  Poissons Ratio (y)      =      -0.00969                     0.33238
  Poissons Ratio (z)      =       0.56884       0.56884
-------------------------------------------------------------------------------


  Piezoelectric Strain Matrix: (Units=C/m**2)

-------------------------------------------------------------------------------
  Indices      1         2         3         4         5         6    
-------------------------------------------------------------------------------
       x     0.00000   0.00000   0.00000   0.00000   0.00000   0.00000
       y     0.00000   0.00000   0.00000   0.00000   0.00000   0.00000
       z     0.00000   0.00000   0.00000   0.00000   0.00000   0.00000
-------------------------------------------------------------------------------


  Piezoelectric Stress Matrix: (Units=10**-11 C/N)

-------------------------------------------------------------------------------
  Indices      1         2         3         4         5         6    
-------------------------------------------------------------------------------
       x     0.00000   0.00000   0.00000   0.00000   0.00000   0.00000
       y     0.00000   0.00000   0.00000   0.00000   0.00000   0.00000
       z     0.00000   0.00000   0.00000   0.00000   0.00000   0.00000
-------------------------------------------------------------------------------


  Static dielectric constant tensor : 

-------------------------------------------------------------------------------
              x         y         z
-------------------------------------------------------------------------------
       x   -27.26238   0.00000   0.00000
       y     0.00000 -27.26238   0.00000
       z     0.00000   0.00000  -7.29228
--------------------------------------------------------------------------------

  High frequency dielectric constant tensor : 

-------------------------------------------------------------------------------
              x         y         z
-------------------------------------------------------------------------------
       x     1.57570   0.00000   0.00000
       y     0.00000   1.57570   0.00000
       z     0.00000   0.00000   1.58164
-------------------------------------------------------------------------------

  Static refractive indices : 

-------------------------------------------------------------------------------
    1 =   -5.22134      2 =   -5.22134      3 =   -2.70042
-------------------------------------------------------------------------------

  High frequency refractive indices : 

-------------------------------------------------------------------------------
    1 =    1.25527      2 =    1.25527      3 =    1.25763
-------------------------------------------------------------------------------


  Time to end of optimisation =       0.0667 seconds


  Peak dynamic memory used =       0.57 MB 


  Timing analysis for GULP :

--------------------------------------------------------------------------------
  Task / Subroutine                                          Time (Seconds)
--------------------------------------------------------------------------------
  Calculation of reciprocal space energy and derivatives          0.0009
  Calculation of reciprocal space energy using symmetry           0.0015
  Calculation of real space energy and derivatives                0.0141
  Calculation of real space energy using symmetry                 0.0468
  Symmetry generation of equivalent positions                     0.0003
--------------------------------------------------------------------------------
  Total CPU time                                                  0.0667
--------------------------------------------------------------------------------


  CIF file written as perov.cif                                               


  Job Finished at 09:29.23  6th April      2017                               

