********************************************************************************
*                       GENERAL UTILITY LATTICE PROGRAM                        *
*                                 Julian Gale                                  *
*                      Nanochemistry Research Institute                        *
*                           Department of Chemistry                            *
*                    Curtin University, Western Australia                      *
********************************************************************************
* Version = 4.3.2 * Last modified =  3rd March 2015                            *
********************************************************************************
*  optimise     - perform optimisation run                                     *
*  conp         - constant pressure calculation                                *
*  property     - calculate properties for final geometry                      *
********************************************************************************

  Job Started  at 14:07.08  6th April      2017                               

  Number of CPUs =     1


  Total number of configurations input =   1

********************************************************************************
*  Input for Configuration =   1                                               *
********************************************************************************

  Formula = K2Cu2F6                                                     

  Number of irreducible atoms/shells =       6


  Total number atoms/shells =      16

  Dimensionality = 3               :  Bulk   


  Symmetry :

  Crystal family                   :  Tetragonal  
  Crystal class  (Groth - 1921)    :  Ditetragonal Dipyramidal             

  Space group (centrosymmetric)    :  P 4/M B M       

  Patterson group                  :  P 4/m m m

  Cartesian lattice vectors (Angstroms) :

        4.200000    0.000000    0.000000
        0.000000    4.200000    0.000000
        0.000000    0.000000    4.200000

  Cell parameters (Angstroms/Degrees):

  a =       4.2000    alpha =  90.0000
  b =       4.2000    beta  =  90.0000
  c =       4.2000    gamma =  90.0000

  Initial cell volume =          74.088000 Angs**3

  Temperature of configuration =  0.000     K 

  Pressure of configuration =         0.000 GPa 

  Fractional coordinates of asymmetric unit :

--------------------------------------------------------------------------------
   No.  Atomic       x           y          z         Charge      Occupancy
        Label      (Frac)      (Frac)     (Frac)        (e)         (Frac)  
--------------------------------------------------------------------------------
      1 K     c    0.000000    0.000000    0.000000     1.20000    1.000000    
      2 Cu    c    0.000000    0.500000    0.000000     2.50000    1.000000    
      3 F     c    0.000000    0.500000    0.500000     0.37800    1.000000    
      4 F     c    0.227100 *  0.727100    0.000000     0.37800    1.000000    
      5 F     s    0.000000    0.500000    0.500000    -1.61133    1.000000    
      6 F     s    0.227100 *  0.727100    0.000000    -1.61133    1.000000    
--------------------------------------------------------------------------------


  Constraints : 

--------------------------------------------------------------------------------
  Constraint no.      Unconstrained     Constrained    Coefficient    Offset
                         Variable         Variable
--------------------------------------------------------------------------------
           1              Strain 1        Strain 2       1.00000      0.0000
           2                 4 x             4 y         1.00000      0.5000
           3                 6 x             6 y         1.00000      0.5000
--------------------------------------------------------------------------------


********************************************************************************
*  General input information                                                   *
********************************************************************************

  Species output for all configurations : 

--------------------------------------------------------------------------------
  Species    Type    Atomic    Atomic    Charge       Radii (Angs)     Library
                     Number     Mass       (e)     Cova   Ionic  VDW   Symbol
--------------------------------------------------------------------------------
    K        Core       19      39.10   1.200000   1.330  0.000  2.800          
    Cu       Core       29      63.55   2.500000   1.520  0.000  1.540          
    F        Core        9      19.00   0.378000   0.710  0.000  1.300          
    F        Shell       9       0.00  -1.611333   0.710  0.000  1.300          
--------------------------------------------------------------------------------


  Lattice summation method               =    Ewald          (3-D)
                                         =    Parry          (2-D)
                                         =    Saunders et al (1-D)
  Accuracy factor for lattice sums       =   12.000


  Time limit = Infinity

  Maximum range for interatomic potentials =    100000.000000 Angstroms

  General interatomic potentials :

--------------------------------------------------------------------------------
Atom  Types   Potential         A         B         C         D     Cutoffs(Ang)
  1     2                                                            Min    Max 
--------------------------------------------------------------------------------
K    c K    c Buckingham    0.219E+04 0.192      0.00      0.00     0.000 10.000
Cu   c F    s Buckingham    0.148E+04 0.266      0.00      0.00     0.000 10.000
F    s F    s Buckingham     912.     0.271      13.8      0.00     0.000 10.000
K    c F    s Buckingham    0.352E+04 0.267      0.00      0.00     0.000 10.000
F    c F    s Spring (c-s)   33.3      0.00      0.00      0.00     0.000  0.800
--------------------------------------------------------------------------------

********************************************************************************
*  Output for configuration   1                                                *
********************************************************************************


  Components of energy : 

--------------------------------------------------------------------------------
  Interatomic potentials     =         162.45946484 eV
  Monopole - monopole (real) =         -70.65863883 eV
  Monopole - monopole (recip)=        -102.06704073 eV
  Monopole - monopole (total)=        -172.72567956 eV
--------------------------------------------------------------------------------
  Total lattice energy       =         -10.26621472 eV
--------------------------------------------------------------------------------
  Total lattice energy       =            -990.5328 kJ/(mole unit cells)
--------------------------------------------------------------------------------


  Number of variables =        4

  Maximum number of calculations  =          1000
  Maximum Hessian update interval =            10
  Maximum step size               =   1.000000000
  Maximum parameter tolerance     =   0.000010000
  Maximum function  tolerance     =   0.000010000
  Maximum gradient  tolerance     =   0.001000000
  Maximum gradient  component     =   0.010000000

  Symmetry constrained optimisation

  Symmetry used for second derivatives

  Cell parameters to be optimised using strains

  Newton-Raphson optimiser to be used

  BFGS hessian update to be used

  Start of bulk optimisation :

  Cycle:      0 Energy:       -10.266215  Gnorm:    193.147605  CPU:    0.005
  ** Hessian calculated **
  Cycle:      1 Energy:      -114.112665  Gnorm:     32.239281  CPU:    0.011
  ** Hessian calculated **
  Cycle:      2 Energy:      -119.746846  Gnorm:     10.744861  CPU:    0.017
  Cycle:      3 Energy:      -120.211116  Gnorm:      6.122148  CPU:    0.021
  Cycle:      4 Energy:      -120.423353  Gnorm:      3.154556  CPU:    0.024
  Cycle:      5 Energy:      -120.472515  Gnorm:      2.403491  CPU:    0.028
  Cycle:      6 Energy:      -120.487709  Gnorm:      0.420392  CPU:    0.031
  Cycle:      7 Energy:      -120.488485  Gnorm:      0.132247  CPU:    0.034
  Cycle:      8 Energy:      -120.488565  Gnorm:      0.033281  CPU:    0.038
  Cycle:      9 Energy:      -120.488577  Gnorm:      0.016125  CPU:    0.041
  Cycle:     10 Energy:      -120.488577  Gnorm:      0.005404  CPU:    0.044
  Cycle:     11 Energy:      -120.488578  Gnorm:      0.001039  CPU:    0.047
  ** Hessian calculated **


  **** Optimisation achieved ****


  Final energy =    -120.48857762 eV
  Final Gnorm  =       0.00052197

  Components of energy : 

--------------------------------------------------------------------------------
  Interatomic potentials     =          19.28307776 eV
  Monopole - monopole (real) =         -40.24378594 eV
  Monopole - monopole (recip)=         -99.52786944 eV
  Monopole - monopole (total)=        -139.77165538 eV
--------------------------------------------------------------------------------
  Total lattice energy       =        -120.48857762 eV
--------------------------------------------------------------------------------
  Total lattice energy       =          -11625.3059 kJ/(mole unit cells)
--------------------------------------------------------------------------------

  Final asymmetric unit coordinates :

--------------------------------------------------------------------------------
   No.  Atomic        x           y           z         Radius
        Label       (Frac)      (Frac)      (Frac)       (Angs) 
--------------------------------------------------------------------------------
     1  K     c     0.000000    0.000000    0.000000    0.000000
     2  Cu    c     0.000000    0.500000    0.000000    0.000000
     3  F     c     0.000000    0.500000    0.500000    0.000000
     4  F     c     0.198174    0.698174    0.000000    0.000000
     5  F     s     0.000000    0.500000    0.500000    0.000000
     6  F     s     0.192688    0.692688    0.000000    0.000000
--------------------------------------------------------------------------------

  Final Cartesian lattice vectors (Angstroms) :

        6.527395    0.000000    0.000000
        0.000000    6.527395    0.000000
        0.000000    0.000000    3.560738


  Final cell parameters and derivatives :

--------------------------------------------------------------------------------
       a            6.527395 Angstrom     dE/de1(xx)     0.000752 eV/strain
       b            6.527395 Angstrom     dE/de2(yy)     0.000000 eV/strain
       c            3.560738 Angstrom     dE/de3(zz)    -0.000045 eV/strain
       alpha       90.000000 Degrees      dE/de4(yz)     0.000000 eV/strain
       beta        90.000000 Degrees      dE/de5(xz)     0.000000 eV/strain
       gamma       90.000000 Degrees      dE/de6(xy)     0.000000 eV/strain
--------------------------------------------------------------------------------

  Primitive cell volume =           151.711942 Angs**3

  Density of cell =      3.494903 g/cm**3

  Non-primitive cell volume =           151.711942 Angs**3


  Final internal derivatives :

--------------------------------------------------------------------------------
   No.  Atomic          a             b             c           Radius
        Label          (eV)          (eV)          (eV)        (eV/Angs)
--------------------------------------------------------------------------------
      1 K     c       0.000000      0.000000      0.000000      0.000000
      2 Cu    c       0.000000      0.000000      0.000000      0.000000
      3 F     c       0.000000      0.000000      0.000000      0.000000
      4 F     c       0.001531      0.000000      0.000000      0.000000
      5 F     s       0.000000      0.000000      0.000000      0.000000
      6 F     s       0.001203      0.000000      0.000000      0.000000
--------------------------------------------------------------------------------
  Maximum abs         0.001531      0.000000      0.000000      0.000000
--------------------------------------------------------------------------------


  Born effective charge tensors : 

-------------------------------------------------------------------------------
  Atom             x           y             z
-------------------------------------------------------------------------------
   1 K     x       1.0425      0.0022      0.0000
           y      -0.0022      1.0425      0.0000
           z       0.0000      0.0000      1.1945
-------------------------------------------------------------------------------
   2 Cu    x       1.9180     -0.3291      0.0000
           y      -0.3291      1.9180      0.0000
           z       0.0000      0.0000      1.7975
-------------------------------------------------------------------------------
   3 F     x      -0.9796      0.0157      0.0000
           y       0.0157     -0.9796      0.0000
           z       0.0000      0.0000     -0.8980
-------------------------------------------------------------------------------
   4 F     x      -0.9905     -0.1390      0.0000
           y      -0.1390     -0.9905      0.0000
           z       0.0000      0.0000     -1.0470
-------------------------------------------------------------------------------




  Elastic Constant Matrix: (Units=GPa)

-------------------------------------------------------------------------------
  Indices      1         2         3         4         5         6    
-------------------------------------------------------------------------------
       1    140.0605   21.8781   -5.7877    0.0000    0.0000    0.0000
       2     21.8781  140.0605   -5.7877    0.0000    0.0000    0.0000
       3     -5.7877   -5.7877  222.8165    0.0000    0.0000    0.0000
       4      0.0000    0.0000    0.0000    2.3335    0.0000    0.0000
       5      0.0000    0.0000    0.0000    0.0000    2.3335    0.0000
       6      0.0000    0.0000    0.0000    0.0000    0.0000   19.6177
-------------------------------------------------------------------------------


  Elastic Compliance Matrix: (Units=1/GPa)

-------------------------------------------------------------------------------
  Indices      1         2         3         4         5         6    
-------------------------------------------------------------------------------
       1    0.007324 -0.001137  0.000161  0.000000  0.000000  0.000000
       2   -0.001137  0.007324  0.000161  0.000000  0.000000  0.000000
       3    0.000161  0.000161  0.004496  0.000000  0.000000  0.000000
       4    0.000000  0.000000  0.000000  0.428537  0.000000  0.000000
       5    0.000000  0.000000  0.000000  0.000000  0.428537  0.000000
       6    0.000000  0.000000  0.000000  0.000000  0.000000  0.050974
-------------------------------------------------------------------------------

  Mechanical properties :

-------------------------------------------------------------------------------
  Convention :                    Reuss         Voigt         Hill
-------------------------------------------------------------------------------
  Bulk  Modulus (GPa)     =      57.10215      58.17145      57.63680
  Shear Modulus (GPa)     =       5.34953      37.69927      21.52440
-------------------------------------------------------------------------------
  Velocity S-wave (km/s)  =       1.23720       3.28435       2.48169
  Velocity P-wave (km/s)  =       4.28714       5.57021       4.97025
-------------------------------------------------------------------------------
  Compressibility (1/GPa) =    0.01751247
-------------------------------------------------------------------------------
  Stress axis :                     x             y             z
-------------------------------------------------------------------------------
  Youngs Moduli (GPa)     =     136.53591     136.53591     222.40280
-------------------------------------------------------------------------------
  Poissons Ratio (x)      =                     0.15530      -0.03574
  Poissons Ratio (y)      =       0.15530                    -0.03574
  Poissons Ratio (z)      =      -0.02194      -0.02194
-------------------------------------------------------------------------------


  Piezoelectric Strain Matrix: (Units=C/m**2)

-------------------------------------------------------------------------------
  Indices      1         2         3         4         5         6    
-------------------------------------------------------------------------------
       x     0.00000   0.00000   0.00000   0.00000   0.00000   0.00000
       y     0.00000   0.00000   0.00000   0.00000   0.00000   0.00000
       z     0.00000   0.00000   0.00000   0.00000   0.00000   0.00000
-------------------------------------------------------------------------------


  Piezoelectric Stress Matrix: (Units=10**-11 C/N)

-------------------------------------------------------------------------------
  Indices      1         2         3         4         5         6    
-------------------------------------------------------------------------------
       x     0.00000   0.00000   0.00000   0.00000   0.00000   0.00000
       y     0.00000   0.00000   0.00000   0.00000   0.00000   0.00000
       z     0.00000   0.00000   0.00000   0.00000   0.00000   0.00000
-------------------------------------------------------------------------------


  Static dielectric constant tensor : 

-------------------------------------------------------------------------------
              x         y         z
-------------------------------------------------------------------------------
       x    43.76046   0.00000   0.00000
       y     0.00000  43.76046   0.00000
       z     0.00000   0.00000   0.96529
--------------------------------------------------------------------------------

  High frequency dielectric constant tensor : 

-------------------------------------------------------------------------------
              x         y         z
-------------------------------------------------------------------------------
       x     1.49211   0.00000   0.00000
       y     0.00000   1.49211   0.00000
       z     0.00000   0.00000   1.50631
-------------------------------------------------------------------------------

  Static refractive indices : 

-------------------------------------------------------------------------------
    1 =    0.98249      2 =    6.61517      3 =    6.61517
-------------------------------------------------------------------------------

  High frequency refractive indices : 

-------------------------------------------------------------------------------
    1 =    1.22152      2 =    1.22152      3 =    1.22732
-------------------------------------------------------------------------------


  Time to end of optimisation =       0.0577 seconds


  Peak dynamic memory used =       0.59 MB 


  Timing analysis for GULP :

--------------------------------------------------------------------------------
  Task / Subroutine                                          Time (Seconds)
--------------------------------------------------------------------------------
  Calculation of reciprocal space energy and derivatives          0.0010
  Calculation of reciprocal space energy using symmetry           0.0048
  Calculation of real space energy and derivatives                0.0039
  Calculation of real space energy using symmetry                 0.0440
  Symmetry generation of equivalent positions                     0.0004
--------------------------------------------------------------------------------
  Total CPU time                                                  0.0577
--------------------------------------------------------------------------------


  CIF file written as perov.cif                                               


  Job Finished at 14:07.08  6th April      2017                               

