********************************************************************************
*                       GENERAL UTILITY LATTICE PROGRAM                        *
*                                 Julian Gale                                  *
*                      Nanochemistry Research Institute                        *
*                           Department of Chemistry                            *
*                    Curtin University, Western Australia                      *
********************************************************************************
* Version = 4.3.2 * Last modified =  3rd March 2015                            *
********************************************************************************
*  optimise     - perform optimisation run                                     *
*  conp         - constant pressure calculation                                *
*  property     - calculate properties for final geometry                      *
********************************************************************************

  Job Started  at 14:07.04  6th April      2017                               

  Number of CPUs =     1


  Total number of configurations input =   1

********************************************************************************
*  Input for Configuration =   1                                               *
********************************************************************************

  Formula = K2Cu2F6                                                     

  Number of irreducible atoms/shells =       6


  Total number atoms/shells =      16

  Dimensionality = 3               :  Bulk   


  Symmetry :

  Crystal family                   :  Tetragonal  
  Crystal class  (Groth - 1921)    :  Ditetragonal Dipyramidal             

  Space group (centrosymmetric)    :  P 4/M B M       

  Patterson group                  :  P 4/m m m

  Cartesian lattice vectors (Angstroms) :

        4.200000    0.000000    0.000000
        0.000000    4.200000    0.000000
        0.000000    0.000000    4.200000

  Cell parameters (Angstroms/Degrees):

  a =       4.2000    alpha =  90.0000
  b =       4.2000    beta  =  90.0000
  c =       4.2000    gamma =  90.0000

  Initial cell volume =          74.088000 Angs**3

  Temperature of configuration =  0.000     K 

  Pressure of configuration =         0.000 GPa 

  Fractional coordinates of asymmetric unit :

--------------------------------------------------------------------------------
   No.  Atomic       x           y          z         Charge      Occupancy
        Label      (Frac)      (Frac)     (Frac)        (e)         (Frac)  
--------------------------------------------------------------------------------
      1 K     c    0.000000    0.000000    0.000000     0.70000    1.000000    
      2 Cu    c    0.000000    0.500000    0.000000     1.80000    1.000000    
      3 F     c    0.000000    0.500000    0.500000     0.37800    1.000000    
      4 F     c    0.227100 *  0.727100    0.000000     0.37800    1.000000    
      5 F     s    0.000000    0.500000    0.500000    -1.21133    1.000000    
      6 F     s    0.227100 *  0.727100    0.000000    -1.21133    1.000000    
--------------------------------------------------------------------------------


  Constraints : 

--------------------------------------------------------------------------------
  Constraint no.      Unconstrained     Constrained    Coefficient    Offset
                         Variable         Variable
--------------------------------------------------------------------------------
           1              Strain 1        Strain 2       1.00000      0.0000
           2                 4 x             4 y         1.00000      0.5000
           3                 6 x             6 y         1.00000      0.5000
--------------------------------------------------------------------------------


********************************************************************************
*  General input information                                                   *
********************************************************************************

  Species output for all configurations : 

--------------------------------------------------------------------------------
  Species    Type    Atomic    Atomic    Charge       Radii (Angs)     Library
                     Number     Mass       (e)     Cova   Ionic  VDW   Symbol
--------------------------------------------------------------------------------
    K        Core       19      39.10   0.700000   1.330  0.000  2.800          
    Cu       Core       29      63.55   1.800000   1.520  0.000  1.540          
    F        Core        9      19.00   0.378000   0.710  0.000  1.300          
    F        Shell       9       0.00  -1.211333   0.710  0.000  1.300          
--------------------------------------------------------------------------------


  Lattice summation method               =    Ewald          (3-D)
                                         =    Parry          (2-D)
                                         =    Saunders et al (1-D)
  Accuracy factor for lattice sums       =   12.000


  Time limit = Infinity

  Maximum range for interatomic potentials =    100000.000000 Angstroms

  General interatomic potentials :

--------------------------------------------------------------------------------
Atom  Types   Potential         A         B         C         D     Cutoffs(Ang)
  1     2                                                            Min    Max 
--------------------------------------------------------------------------------
K    c K    c Buckingham    0.219E+04 0.192      0.00      0.00     0.000 10.000
Cu   c F    s Buckingham    0.148E+04 0.266      0.00      0.00     0.000 10.000
F    s F    s Buckingham     912.     0.271      13.8      0.00     0.000 10.000
K    c F    s Buckingham    0.352E+04 0.267      0.00      0.00     0.000 10.000
F    c F    s Spring (c-s)   18.8      0.00      0.00      0.00     0.000  0.800
--------------------------------------------------------------------------------

********************************************************************************
*  Output for configuration   1                                                *
********************************************************************************


  Components of energy : 

--------------------------------------------------------------------------------
  Interatomic potentials     =         162.45946484 eV
  Monopole - monopole (real) =         -33.06044726 eV
  Monopole - monopole (recip)=         -48.47473290 eV
  Monopole - monopole (total)=         -81.53518017 eV
--------------------------------------------------------------------------------
  Total lattice energy       =          80.92428468 eV
--------------------------------------------------------------------------------
  Total lattice energy       =            7807.9564 kJ/(mole unit cells)
--------------------------------------------------------------------------------


  Number of variables =        4

  Maximum number of calculations  =          1000
  Maximum Hessian update interval =            10
  Maximum step size               =   1.000000000
  Maximum parameter tolerance     =   0.000010000
  Maximum function  tolerance     =   0.000010000
  Maximum gradient  tolerance     =   0.001000000
  Maximum gradient  component     =   0.010000000

  Symmetry constrained optimisation

  Symmetry used for second derivatives

  Cell parameters to be optimised using strains

  Newton-Raphson optimiser to be used

  BFGS hessian update to be used

  Start of bulk optimisation :

  Cycle:      0 Energy:        80.924285  Gnorm:    214.040459  CPU:    0.005
  ** Hessian calculated **
  Cycle:      1 Energy:       -49.712034  Gnorm:     29.111654  CPU:    0.012
  ** Hessian calculated **
  Cycle:      2 Energy:       -50.881682  Gnorm:      9.330875  CPU:    0.018
  ** Hessian calculated **
  Cycle:      3 Energy:       -51.013347  Gnorm:      4.548547  CPU:    0.024
  Cycle:      4 Energy:       -51.077860  Gnorm:      2.001682  CPU:    0.028
  Cycle:      5 Energy:       -51.096654  Gnorm:      2.338630  CPU:    0.031
  Cycle:      6 Energy:       -51.263778  Gnorm:      2.579304  CPU:    0.036
  ** Hessian calculated **
  Cycle:      7 Energy:       -51.390134  Gnorm:      2.067278  CPU:    0.042
  Cycle:      8 Energy:       -51.412208  Gnorm:      2.092743  CPU:    0.046
  Cycle:      9 Energy:       -51.422747  Gnorm:      0.888846  CPU:    0.049
  Cycle:     10 Energy:       -51.427234  Gnorm:      0.578835  CPU:    0.052
  Cycle:     11 Energy:       -51.428054  Gnorm:      0.034731  CPU:    0.055
  Cycle:     12 Energy:       -51.428072  Gnorm:      0.015619  CPU:    0.059
  Cycle:     13 Energy:       -51.428074  Gnorm:      0.004698  CPU:    0.062


  **** Optimisation achieved ****


  Final energy =     -51.42807410 eV
  Final Gnorm  =       0.00071889

  Components of energy : 

--------------------------------------------------------------------------------
  Interatomic potentials     =           7.18545006 eV
  Monopole - monopole (real) =         -12.61872001 eV
  Monopole - monopole (recip)=         -45.99480416 eV
  Monopole - monopole (total)=         -58.61352416 eV
--------------------------------------------------------------------------------
  Total lattice energy       =         -51.42807410 eV
--------------------------------------------------------------------------------
  Total lattice energy       =           -4962.0230 kJ/(mole unit cells)
--------------------------------------------------------------------------------

  Final asymmetric unit coordinates :

--------------------------------------------------------------------------------
   No.  Atomic        x           y           z         Radius
        Label       (Frac)      (Frac)      (Frac)       (Angs) 
--------------------------------------------------------------------------------
     1  K     c     0.000000    0.000000    0.000000    0.000000
     2  Cu    c     0.000000    0.500000    0.000000    0.000000
     3  F     c     0.000000    0.500000    0.500000    0.000000
     4  F     c     0.298212    0.798212    0.000000    0.000000
     5  F     s     0.000000    0.500000    0.500000    0.000000
     6  F     s     0.303094    0.803094    0.000000    0.000000
--------------------------------------------------------------------------------

  Final Cartesian lattice vectors (Angstroms) :

        7.310049    0.000000    0.000000
        0.000000    7.310049    0.000000
        0.000000    0.000000    4.061792


  Final cell parameters and derivatives :

--------------------------------------------------------------------------------
       a            7.310049 Angstrom     dE/de1(xx)    -0.000855 eV/strain
       b            7.310049 Angstrom     dE/de2(yy)     0.000000 eV/strain
       c            4.061792 Angstrom     dE/de3(zz)     0.000608 eV/strain
       alpha       90.000000 Degrees      dE/de4(yz)     0.000000 eV/strain
       beta        90.000000 Degrees      dE/de5(xz)     0.000000 eV/strain
       gamma       90.000000 Degrees      dE/de6(xy)     0.000000 eV/strain
--------------------------------------------------------------------------------

  Primitive cell volume =           217.049220 Angs**3

  Density of cell =      2.442849 g/cm**3

  Non-primitive cell volume =           217.049220 Angs**3


  Final internal derivatives :

--------------------------------------------------------------------------------
   No.  Atomic          a             b             c           Radius
        Label          (eV)          (eV)          (eV)        (eV/Angs)
--------------------------------------------------------------------------------
      1 K     c       0.000000      0.000000      0.000000      0.000000
      2 Cu    c       0.000000      0.000000      0.000000      0.000000
      3 F     c       0.000000      0.000000      0.000000      0.000000
      4 F     c       0.002468      0.000000      0.000000      0.000000
      5 F     s       0.000000      0.000000      0.000000      0.000000
      6 F     s       0.001038      0.000000      0.000000      0.000000
--------------------------------------------------------------------------------
  Maximum abs         0.002468      0.000000      0.000000      0.000000
--------------------------------------------------------------------------------


  Born effective charge tensors : 

-------------------------------------------------------------------------------
  Atom             x           y             z
-------------------------------------------------------------------------------
   1 K     x       0.5975      0.0007      0.0000
           y      -0.0007      0.5975      0.0000
           z       0.0000      0.0000      0.6968
-------------------------------------------------------------------------------
   2 Cu    x       1.4721      0.2047      0.0000
           y       0.2047      1.4721      0.0000
           z       0.0000      0.0000      1.3597
-------------------------------------------------------------------------------
   3 F     x      -0.6867     -0.0078      0.0000
           y      -0.0078     -0.6867      0.0000
           z       0.0000      0.0000     -0.5952
-------------------------------------------------------------------------------
   4 F     x      -0.6914     -0.0829      0.0000
           y      -0.0829     -0.6914      0.0000
           z       0.0000      0.0000     -0.7306
-------------------------------------------------------------------------------




  Elastic Constant Matrix: (Units=GPa)

-------------------------------------------------------------------------------
  Indices      1         2         3         4         5         6    
-------------------------------------------------------------------------------
       1     39.4513    6.9853   -1.5585    0.0000    0.0000    0.0000
       2      6.9853   39.4513   -1.5585    0.0000    0.0000    0.0000
       3     -1.5585   -1.5585   85.4552    0.0000    0.0000    0.0000
       4      0.0000    0.0000    0.0000    1.1203    0.0000    0.0000
       5      0.0000    0.0000    0.0000    0.0000    1.1203    0.0000
       6      0.0000    0.0000    0.0000    0.0000    0.0000    4.6667
-------------------------------------------------------------------------------


  Elastic Compliance Matrix: (Units=1/GPa)

-------------------------------------------------------------------------------
  Indices      1         2         3         4         5         6    
-------------------------------------------------------------------------------
       1    0.026181 -0.004620  0.000393  0.000000  0.000000  0.000000
       2   -0.004620  0.026181  0.000393  0.000000  0.000000  0.000000
       3    0.000393  0.000393  0.011716  0.000000  0.000000  0.000000
       4    0.000000  0.000000  0.000000  0.892632  0.000000  0.000000
       5    0.000000  0.000000  0.000000  0.000000  0.892632  0.000000
       6    0.000000  0.000000  0.000000  0.000000  0.000000  0.214284
-------------------------------------------------------------------------------

  Mechanical properties :

-------------------------------------------------------------------------------
  Convention :                    Reuss         Voigt         Hill
-------------------------------------------------------------------------------
  Bulk  Modulus (GPa)     =      17.72689      19.12162      18.42425
  Shear Modulus (GPa)     =       2.39223      12.08075       7.23649
-------------------------------------------------------------------------------
  Velocity S-wave (km/s)  =       0.98959       2.22381       1.72114
  Velocity P-wave (km/s)  =       2.92615       3.79755       3.38997
-------------------------------------------------------------------------------
  Compressibility (1/GPa) =    0.05641149
-------------------------------------------------------------------------------
  Stress axis :                     x             y             z
-------------------------------------------------------------------------------
  Youngs Moduli (GPa)     =      38.19518      38.19518      85.35061
-------------------------------------------------------------------------------
  Poissons Ratio (x)      =                     0.17647      -0.03356
  Poissons Ratio (y)      =       0.17647                    -0.03356
  Poissons Ratio (z)      =      -0.01502      -0.01502
-------------------------------------------------------------------------------


  Piezoelectric Strain Matrix: (Units=C/m**2)

-------------------------------------------------------------------------------
  Indices      1         2         3         4         5         6    
-------------------------------------------------------------------------------
       x     0.00000   0.00000   0.00000   0.00000   0.00000   0.00000
       y     0.00000   0.00000   0.00000   0.00000   0.00000   0.00000
       z     0.00000   0.00000   0.00000   0.00000   0.00000   0.00000
-------------------------------------------------------------------------------


  Piezoelectric Stress Matrix: (Units=10**-11 C/N)

-------------------------------------------------------------------------------
  Indices      1         2         3         4         5         6    
-------------------------------------------------------------------------------
       x     0.00000   0.00000   0.00000   0.00000   0.00000   0.00000
       y     0.00000   0.00000   0.00000   0.00000   0.00000   0.00000
       z     0.00000   0.00000   0.00000   0.00000   0.00000   0.00000
-------------------------------------------------------------------------------


  Static dielectric constant tensor : 

-------------------------------------------------------------------------------
              x         y         z
-------------------------------------------------------------------------------
       x     3.00970   0.00000   0.00000
       y     0.00000   3.00970   0.00000
       z     0.00000   0.00000   1.40083
--------------------------------------------------------------------------------

  High frequency dielectric constant tensor : 

-------------------------------------------------------------------------------
              x         y         z
-------------------------------------------------------------------------------
       x     1.35705   0.00000   0.00000
       y     0.00000   1.35705   0.00000
       z     0.00000   0.00000   1.36165
-------------------------------------------------------------------------------

  Static refractive indices : 

-------------------------------------------------------------------------------
    1 =    1.18357      2 =    1.73485      3 =    1.73485
-------------------------------------------------------------------------------

  High frequency refractive indices : 

-------------------------------------------------------------------------------
    1 =    1.16492      2 =    1.16492      3 =    1.16690
-------------------------------------------------------------------------------


  Time to end of optimisation =       0.0701 seconds


  Peak dynamic memory used =       0.59 MB 


  Timing analysis for GULP :

--------------------------------------------------------------------------------
  Task / Subroutine                                          Time (Seconds)
--------------------------------------------------------------------------------
  Calculation of reciprocal space energy and derivatives          0.0010
  Calculation of reciprocal space energy using symmetry           0.0063
  Calculation of real space energy and derivatives                0.0038
  Calculation of real space energy using symmetry                 0.0547
  Symmetry generation of equivalent positions                     0.0005
--------------------------------------------------------------------------------
  Total CPU time                                                  0.0701
--------------------------------------------------------------------------------


  CIF file written as perov.cif                                               


  Job Finished at 14:07.04  6th April      2017                               

