********************************************************************************
*                       GENERAL UTILITY LATTICE PROGRAM                        *
*                                 Julian Gale                                  *
*                      Nanochemistry Research Institute                        *
*                           Department of Chemistry                            *
*                    Curtin University, Western Australia                      *
********************************************************************************
* Version = 4.3.2 * Last modified =  3rd March 2015                            *
********************************************************************************
*  optimise     - perform optimisation run                                     *
*  conp         - constant pressure calculation                                *
*  property     - calculate properties for final geometry                      *
********************************************************************************

  Job Started  at 14:07.05  6th April      2017                               

  Number of CPUs =     1


  Total number of configurations input =   1

********************************************************************************
*  Input for Configuration =   1                                               *
********************************************************************************

  Formula = K2Cu2F6                                                     

  Number of irreducible atoms/shells =       6


  Total number atoms/shells =      16

  Dimensionality = 3               :  Bulk   


  Symmetry :

  Crystal family                   :  Tetragonal  
  Crystal class  (Groth - 1921)    :  Ditetragonal Dipyramidal             

  Space group (centrosymmetric)    :  P 4/M B M       

  Patterson group                  :  P 4/m m m

  Cartesian lattice vectors (Angstroms) :

        4.200000    0.000000    0.000000
        0.000000    4.200000    0.000000
        0.000000    0.000000    4.200000

  Cell parameters (Angstroms/Degrees):

  a =       4.2000    alpha =  90.0000
  b =       4.2000    beta  =  90.0000
  c =       4.2000    gamma =  90.0000

  Initial cell volume =          74.088000 Angs**3

  Temperature of configuration =  0.000     K 

  Pressure of configuration =         0.000 GPa 

  Fractional coordinates of asymmetric unit :

--------------------------------------------------------------------------------
   No.  Atomic       x           y          z         Charge      Occupancy
        Label      (Frac)      (Frac)     (Frac)        (e)         (Frac)  
--------------------------------------------------------------------------------
      1 K     c    0.000000    0.000000    0.000000     0.80000    1.000000    
      2 Cu    c    0.000000    0.500000    0.000000     2.40000    1.000000    
      3 F     c    0.000000    0.500000    0.500000     0.37800    1.000000    
      4 F     c    0.227100 *  0.727100    0.000000     0.37800    1.000000    
      5 F     s    0.000000    0.500000    0.500000    -1.44467    1.000000    
      6 F     s    0.227100 *  0.727100    0.000000    -1.44467    1.000000    
--------------------------------------------------------------------------------


  Constraints : 

--------------------------------------------------------------------------------
  Constraint no.      Unconstrained     Constrained    Coefficient    Offset
                         Variable         Variable
--------------------------------------------------------------------------------
           1              Strain 1        Strain 2       1.00000      0.0000
           2                 4 x             4 y         1.00000      0.5000
           3                 6 x             6 y         1.00000      0.5000
--------------------------------------------------------------------------------


********************************************************************************
*  General input information                                                   *
********************************************************************************

  Species output for all configurations : 

--------------------------------------------------------------------------------
  Species    Type    Atomic    Atomic    Charge       Radii (Angs)     Library
                     Number     Mass       (e)     Cova   Ionic  VDW   Symbol
--------------------------------------------------------------------------------
    K        Core       19      39.10   0.800000   1.330  0.000  2.800          
    Cu       Core       29      63.55   2.400000   1.520  0.000  1.540          
    F        Core        9      19.00   0.378000   0.710  0.000  1.300          
    F        Shell       9       0.00  -1.444667   0.710  0.000  1.300          
--------------------------------------------------------------------------------


  Lattice summation method               =    Ewald          (3-D)
                                         =    Parry          (2-D)
                                         =    Saunders et al (1-D)
  Accuracy factor for lattice sums       =   12.000


  Time limit = Infinity

  Maximum range for interatomic potentials =    100000.000000 Angstroms

  General interatomic potentials :

--------------------------------------------------------------------------------
Atom  Types   Potential         A         B         C         D     Cutoffs(Ang)
  1     2                                                            Min    Max 
--------------------------------------------------------------------------------
K    c K    c Buckingham    0.219E+04 0.192      0.00      0.00     0.000 10.000
Cu   c F    s Buckingham    0.148E+04 0.266      0.00      0.00     0.000 10.000
F    s F    s Buckingham     912.     0.271      13.8      0.00     0.000 10.000
K    c F    s Buckingham    0.352E+04 0.267      0.00      0.00     0.000 10.000
F    c F    s Spring (c-s)   26.8      0.00      0.00      0.00     0.000  0.800
--------------------------------------------------------------------------------

********************************************************************************
*  Output for configuration   1                                                *
********************************************************************************


  Components of energy : 

--------------------------------------------------------------------------------
  Interatomic potentials     =         162.45946484 eV
  Monopole - monopole (real) =         -55.17560490 eV
  Monopole - monopole (recip)=         -81.88825450 eV
  Monopole - monopole (total)=        -137.06385940 eV
--------------------------------------------------------------------------------
  Total lattice energy       =          25.39560545 eV
--------------------------------------------------------------------------------
  Total lattice energy       =            2450.2877 kJ/(mole unit cells)
--------------------------------------------------------------------------------


  Number of variables =        4

  Maximum number of calculations  =          1000
  Maximum Hessian update interval =            10
  Maximum step size               =   1.000000000
  Maximum parameter tolerance     =   0.000010000
  Maximum function  tolerance     =   0.000010000
  Maximum gradient  tolerance     =   0.001000000
  Maximum gradient  component     =   0.010000000

  Symmetry constrained optimisation

  Symmetry used for second derivatives

  Cell parameters to be optimised using strains

  Newton-Raphson optimiser to be used

  BFGS hessian update to be used

  Start of bulk optimisation :

  Cycle:      0 Energy:        25.395605  Gnorm:    200.430308  CPU:    0.005
  ** Hessian calculated **
  Cycle:      1 Energy:       -89.315422  Gnorm:     33.808339  CPU:    0.012
  ** Hessian calculated **
  Cycle:      2 Energy:       -91.655840  Gnorm:     14.289283  CPU:    0.019
  Cycle:      3 Energy:       -91.678531  Gnorm:     13.507596  CPU:    0.023
  ** Hessian calculated **
  Cycle:      4 Energy:       -93.442901  Gnorm:     10.163043  CPU:    0.029
  Cycle:      5 Energy:       -93.724894  Gnorm:      3.467388  CPU:    0.032
  Cycle:      6 Energy:       -93.760156  Gnorm:      0.830799  CPU:    0.035
  Cycle:      7 Energy:       -93.763302  Gnorm:      0.951802  CPU:    0.039
  Cycle:      8 Energy:       -93.764211  Gnorm:      0.137782  CPU:    0.042
  Cycle:      9 Energy:       -93.764373  Gnorm:      0.081717  CPU:    0.045
  Cycle:     10 Energy:       -93.764383  Gnorm:      0.030230  CPU:    0.048
  Cycle:     11 Energy:       -93.764384  Gnorm:      0.003507  CPU:    0.051
  Cycle:     12 Energy:       -93.764384  Gnorm:      0.004446  CPU:    0.054


  **** Optimisation achieved ****


  Final energy =     -93.76438411 eV
  Final Gnorm  =       0.00076510

  Components of energy : 

--------------------------------------------------------------------------------
  Interatomic potentials     =          15.08332876 eV
  Monopole - monopole (real) =         -31.89797409 eV
  Monopole - monopole (recip)=         -76.94973878 eV
  Monopole - monopole (total)=        -108.84771287 eV
--------------------------------------------------------------------------------
  Total lattice energy       =         -93.76438411 eV
--------------------------------------------------------------------------------
  Total lattice energy       =           -9046.8297 kJ/(mole unit cells)
--------------------------------------------------------------------------------

  Final asymmetric unit coordinates :

--------------------------------------------------------------------------------
   No.  Atomic        x           y           z         Radius
        Label       (Frac)      (Frac)      (Frac)       (Angs) 
--------------------------------------------------------------------------------
     1  K     c     0.000000    0.000000    0.000000    0.000000
     2  Cu    c     0.000000    0.500000    0.000000    0.000000
     3  F     c     0.000000    0.500000    0.500000    0.000000
     4  F     c     0.310483    0.810483    0.000000    0.000000
     5  F     s     0.000000    0.500000    0.500000    0.000000
     6  F     s     0.317507    0.817507    0.000000    0.000000
--------------------------------------------------------------------------------

  Final Cartesian lattice vectors (Angstroms) :

        6.963580    0.000000    0.000000
        0.000000    6.963580    0.000000
        0.000000    0.000000    3.694664


  Final cell parameters and derivatives :

--------------------------------------------------------------------------------
       a            6.963580 Angstrom     dE/de1(xx)     0.000182 eV/strain
       b            6.963580 Angstrom     dE/de2(yy)     0.000000 eV/strain
       c            3.694664 Angstrom     dE/de3(zz)    -0.000892 eV/strain
       alpha       90.000000 Degrees      dE/de4(yz)     0.000000 eV/strain
       beta        90.000000 Degrees      dE/de5(xz)     0.000000 eV/strain
       gamma       90.000000 Degrees      dE/de6(xy)     0.000000 eV/strain
--------------------------------------------------------------------------------

  Primitive cell volume =           179.159646 Angs**3

  Density of cell =      2.959475 g/cm**3

  Non-primitive cell volume =           179.159646 Angs**3


  Final internal derivatives :

--------------------------------------------------------------------------------
   No.  Atomic          a             b             c           Radius
        Label          (eV)          (eV)          (eV)        (eV/Angs)
--------------------------------------------------------------------------------
      1 K     c       0.000000      0.000000      0.000000      0.000000
      2 Cu    c       0.000000      0.000000      0.000000      0.000000
      3 F     c       0.000000      0.000000      0.000000      0.000000
      4 F     c      -0.000799      0.000000      0.000000      0.000000
      5 F     s       0.000000      0.000000      0.000000      0.000000
      6 F     s       0.002811      0.000000      0.000000      0.000000
--------------------------------------------------------------------------------
  Maximum abs         0.002811      0.000000      0.000000      0.000000
--------------------------------------------------------------------------------


  Born effective charge tensors : 

-------------------------------------------------------------------------------
  Atom             x           y             z
-------------------------------------------------------------------------------
   1 K     x       0.7042     -0.0015      0.0000
           y       0.0015      0.7042      0.0000
           z       0.0000      0.0000      0.8009
-------------------------------------------------------------------------------
   2 Cu    x       1.7165      0.3485      0.0000
           y       0.3485      1.7165      0.0000
           z       0.0000      0.0000      1.7925
-------------------------------------------------------------------------------
   3 F     x      -0.8009     -0.0121      0.0000
           y      -0.0121     -0.8009      0.0000
           z       0.0000      0.0000     -0.7557
-------------------------------------------------------------------------------
   4 F     x      -0.8099     -0.0436      0.0000
           y      -0.0436     -0.8099      0.0000
           z       0.0000      0.0000     -0.9189
-------------------------------------------------------------------------------




  Elastic Constant Matrix: (Units=GPa)

-------------------------------------------------------------------------------
  Indices      1         2         3         4         5         6    
-------------------------------------------------------------------------------
       1     70.1410    7.2454   -3.2318    0.0000    0.0000    0.0000
       2      7.2454   70.1410   -3.2318    0.0000    0.0000    0.0000
       3     -3.2318   -3.2318  162.9406    0.0000    0.0000    0.0000
       4      0.0000    0.0000    0.0000    0.8732    0.0000    0.0000
       5      0.0000    0.0000    0.0000    0.0000    0.8732    0.0000
       6      0.0000    0.0000    0.0000    0.0000    0.0000    3.9475
-------------------------------------------------------------------------------


  Elastic Compliance Matrix: (Units=1/GPa)

-------------------------------------------------------------------------------
  Indices      1         2         3         4         5         6    
-------------------------------------------------------------------------------
       1    0.014421 -0.001478  0.000257  0.000000  0.000000  0.000000
       2   -0.001478  0.014421  0.000257  0.000000  0.000000  0.000000
       3    0.000257  0.000257  0.006147  0.000000  0.000000  0.000000
       4    0.000000  0.000000  0.000000  1.145244  0.000000  0.000000
       5    0.000000  0.000000  0.000000  0.000000  1.145244  0.000000
       6    0.000000  0.000000  0.000000  0.000000  0.000000  0.253323
-------------------------------------------------------------------------------

  Mechanical properties :

-------------------------------------------------------------------------------
  Convention :                    Reuss         Voigt         Hill
-------------------------------------------------------------------------------
  Bulk  Modulus (GPa)     =      30.24662      33.86510      32.05586
  Shear Modulus (GPa)     =       1.92920      21.30149      11.61535
-------------------------------------------------------------------------------
  Velocity S-wave (km/s)  =       0.80739       2.68286       1.98111
  Velocity P-wave (km/s)  =       3.33008       4.58693       4.00808
-------------------------------------------------------------------------------
  Compressibility (1/GPa) =    0.03306155
-------------------------------------------------------------------------------
  Stress axis :                     x             y             z
-------------------------------------------------------------------------------
  Youngs Moduli (GPa)     =      69.34093      69.34093     162.67064
-------------------------------------------------------------------------------
  Poissons Ratio (x)      =                     0.10248      -0.04176
  Poissons Ratio (y)      =       0.10248                    -0.04176
  Poissons Ratio (z)      =      -0.01780      -0.01780
-------------------------------------------------------------------------------


  Piezoelectric Strain Matrix: (Units=C/m**2)

-------------------------------------------------------------------------------
  Indices      1         2         3         4         5         6    
-------------------------------------------------------------------------------
       x     0.00000   0.00000   0.00000   0.00000   0.00000   0.00000
       y     0.00000   0.00000   0.00000   0.00000   0.00000   0.00000
       z     0.00000   0.00000   0.00000   0.00000   0.00000   0.00000
-------------------------------------------------------------------------------


  Piezoelectric Stress Matrix: (Units=10**-11 C/N)

-------------------------------------------------------------------------------
  Indices      1         2         3         4         5         6    
-------------------------------------------------------------------------------
       x     0.00000   0.00000   0.00000   0.00000   0.00000   0.00000
       y     0.00000   0.00000   0.00000   0.00000   0.00000   0.00000
       z     0.00000   0.00000   0.00000   0.00000   0.00000   0.00000
-------------------------------------------------------------------------------


  Static dielectric constant tensor : 

-------------------------------------------------------------------------------
              x         y         z
-------------------------------------------------------------------------------
       x   -45.59710   0.00000   0.00000
       y     0.00000 -45.59710   0.00000
       z     0.00000   0.00000   1.41813
--------------------------------------------------------------------------------

  High frequency dielectric constant tensor : 

-------------------------------------------------------------------------------
              x         y         z
-------------------------------------------------------------------------------
       x     1.40108   0.00000   0.00000
       y     0.00000   1.40108   0.00000
       z     0.00000   0.00000   1.43268
-------------------------------------------------------------------------------

  Static refractive indices : 

-------------------------------------------------------------------------------
    1 =   -6.75256      2 =   -6.75256      3 =    1.19085
-------------------------------------------------------------------------------

  High frequency refractive indices : 

-------------------------------------------------------------------------------
    1 =    1.18367      2 =    1.18367      3 =    1.19695
-------------------------------------------------------------------------------


  Time to end of optimisation =       0.0629 seconds


  Peak dynamic memory used =       0.59 MB 


  Timing analysis for GULP :

--------------------------------------------------------------------------------
  Task / Subroutine                                          Time (Seconds)
--------------------------------------------------------------------------------
  Calculation of reciprocal space energy and derivatives          0.0010
  Calculation of reciprocal space energy using symmetry           0.0053
  Calculation of real space energy and derivatives                0.0039
  Calculation of real space energy using symmetry                 0.0486
  Symmetry generation of equivalent positions                     0.0005
--------------------------------------------------------------------------------
  Total CPU time                                                  0.0629
--------------------------------------------------------------------------------


  CIF file written as perov.cif                                               


  Job Finished at 14:07.05  6th April      2017                               

