********************************************************************************
*                       GENERAL UTILITY LATTICE PROGRAM                        *
*                                 Julian Gale                                  *
*                      Nanochemistry Research Institute                        *
*                           Department of Chemistry                            *
*                    Curtin University, Western Australia                      *
********************************************************************************
* Version = 4.3.2 * Last modified =  3rd March 2015                            *
********************************************************************************
*  optimise     - perform optimisation run                                     *
*  conp         - constant pressure calculation                                *
*  property     - calculate properties for final geometry                      *
********************************************************************************

  Job Started  at 14:07.03  6th April      2017                               

  Number of CPUs =     1


  Total number of configurations input =   1

********************************************************************************
*  Input for Configuration =   1                                               *
********************************************************************************

  Formula = K2Cu2F6                                                     

  Number of irreducible atoms/shells =       6


  Total number atoms/shells =      16

  Dimensionality = 3               :  Bulk   


  Symmetry :

  Crystal family                   :  Tetragonal  
  Crystal class  (Groth - 1921)    :  Ditetragonal Dipyramidal             

  Space group (centrosymmetric)    :  P 4/M B M       

  Patterson group                  :  P 4/m m m

  Cartesian lattice vectors (Angstroms) :

        4.200000    0.000000    0.000000
        0.000000    4.200000    0.000000
        0.000000    0.000000    4.200000

  Cell parameters (Angstroms/Degrees):

  a =       4.2000    alpha =  90.0000
  b =       4.2000    beta  =  90.0000
  c =       4.2000    gamma =  90.0000

  Initial cell volume =          74.088000 Angs**3

  Temperature of configuration =  0.000     K 

  Pressure of configuration =         0.000 GPa 

  Fractional coordinates of asymmetric unit :

--------------------------------------------------------------------------------
   No.  Atomic       x           y          z         Charge      Occupancy
        Label      (Frac)      (Frac)     (Frac)        (e)         (Frac)  
--------------------------------------------------------------------------------
      1 K     c    0.000000    0.000000    0.000000     0.60000    1.000000    
      2 Cu    c    0.000000    0.500000    0.000000     1.70000    1.000000    
      3 F     c    0.000000    0.500000    0.500000     0.37800    1.000000    
      4 F     c    0.227100 *  0.727100    0.000000     0.37800    1.000000    
      5 F     s    0.000000    0.500000    0.500000    -1.14467    1.000000    
      6 F     s    0.227100 *  0.727100    0.000000    -1.14467    1.000000    
--------------------------------------------------------------------------------


  Constraints : 

--------------------------------------------------------------------------------
  Constraint no.      Unconstrained     Constrained    Coefficient    Offset
                         Variable         Variable
--------------------------------------------------------------------------------
           1              Strain 1        Strain 2       1.00000      0.0000
           2                 4 x             4 y         1.00000      0.5000
           3                 6 x             6 y         1.00000      0.5000
--------------------------------------------------------------------------------


********************************************************************************
*  General input information                                                   *
********************************************************************************

  Species output for all configurations : 

--------------------------------------------------------------------------------
  Species    Type    Atomic    Atomic    Charge       Radii (Angs)     Library
                     Number     Mass       (e)     Cova   Ionic  VDW   Symbol
--------------------------------------------------------------------------------
    K        Core       19      39.10   0.600000   1.330  0.000  2.800          
    Cu       Core       29      63.55   1.700000   1.520  0.000  1.540          
    F        Core        9      19.00   0.378000   0.710  0.000  1.300          
    F        Shell       9       0.00  -1.144667   0.710  0.000  1.300          
--------------------------------------------------------------------------------


  Lattice summation method               =    Ewald          (3-D)
                                         =    Parry          (2-D)
                                         =    Saunders et al (1-D)
  Accuracy factor for lattice sums       =   12.000


  Time limit = Infinity

  Maximum range for interatomic potentials =    100000.000000 Angstroms

  General interatomic potentials :

--------------------------------------------------------------------------------
Atom  Types   Potential         A         B         C         D     Cutoffs(Ang)
  1     2                                                            Min    Max 
--------------------------------------------------------------------------------
K    c K    c Buckingham    0.219E+04 0.192      0.00      0.00     0.000 10.000
Cu   c F    s Buckingham    0.148E+04 0.266      0.00      0.00     0.000 10.000
F    s F    s Buckingham     912.     0.271      13.8      0.00     0.000 10.000
K    c F    s Buckingham    0.352E+04 0.267      0.00      0.00     0.000 10.000
F    c F    s Spring (c-s)   16.8      0.00      0.00      0.00     0.000  0.800
--------------------------------------------------------------------------------

********************************************************************************
*  Output for configuration   1                                                *
********************************************************************************


  Components of energy : 

--------------------------------------------------------------------------------
  Interatomic potentials     =         162.45946484 eV
  Monopole - monopole (real) =         -28.30910014 eV
  Monopole - monopole (recip)=         -41.82322162 eV
  Monopole - monopole (total)=         -70.13232176 eV
--------------------------------------------------------------------------------
  Total lattice energy       =          92.32714308 eV
--------------------------------------------------------------------------------
  Total lattice energy       =            8908.1580 kJ/(mole unit cells)
--------------------------------------------------------------------------------


  Number of variables =        4

  Maximum number of calculations  =          1000
  Maximum Hessian update interval =            10
  Maximum step size               =   1.000000000
  Maximum parameter tolerance     =   0.000010000
  Maximum function  tolerance     =   0.000010000
  Maximum gradient  tolerance     =   0.001000000
  Maximum gradient  component     =   0.010000000

  Symmetry constrained optimisation

  Symmetry used for second derivatives

  Cell parameters to be optimised using strains

  Newton-Raphson optimiser to be used

  BFGS hessian update to be used

  Start of bulk optimisation :

  Cycle:      0 Energy:        92.327143  Gnorm:    216.765069  CPU:    0.005
  ** Hessian calculated **
  Cycle:      1 Energy:       -41.573924  Gnorm:     28.124132  CPU:    0.013
  ** Hessian calculated **
  Cycle:      2 Energy:       -42.920628  Gnorm:     10.548923  CPU:    0.019
  Cycle:      3 Energy:       -43.033634  Gnorm:      5.905242  CPU:    0.022
  Cycle:      4 Energy:       -43.309800  Gnorm:      7.104506  CPU:    0.027
  ** Hessian calculated **
  Cycle:      5 Energy:       -43.418936  Gnorm:      3.059232  CPU:    0.032
  Cycle:      6 Energy:       -43.461215  Gnorm:      3.763947  CPU:    0.035
  Cycle:      7 Energy:       -43.479020  Gnorm:      0.101837  CPU:    0.039
  Cycle:      8 Energy:       -43.479271  Gnorm:      0.051849  CPU:    0.042
  Cycle:      9 Energy:       -43.479287  Gnorm:      0.011734  CPU:    0.045
  Cycle:     10 Energy:       -43.479289  Gnorm:      0.002525  CPU:    0.048


  **** Optimisation achieved ****


  Final energy =     -43.47928871 eV
  Final Gnorm  =       0.00064788

  Components of energy : 

--------------------------------------------------------------------------------
  Interatomic potentials     =           5.96637978 eV
  Monopole - monopole (real) =          -9.84275912 eV
  Monopole - monopole (recip)=         -39.60290937 eV
  Monopole - monopole (total)=         -49.44566849 eV
--------------------------------------------------------------------------------
  Total lattice energy       =         -43.47928871 eV
--------------------------------------------------------------------------------
  Total lattice energy       =           -4195.0867 kJ/(mole unit cells)
--------------------------------------------------------------------------------

  Final asymmetric unit coordinates :

--------------------------------------------------------------------------------
   No.  Atomic        x           y           z         Radius
        Label       (Frac)      (Frac)      (Frac)       (Angs) 
--------------------------------------------------------------------------------
     1  K     c     0.000000    0.000000    0.000000    0.000000
     2  Cu    c     0.000000    0.500000    0.000000    0.000000
     3  F     c     0.000000    0.500000    0.500000    0.000000
     4  F     c     0.200923    0.700923    0.000000    0.000000
     5  F     s     0.000000    0.500000    0.500000    0.000000
     6  F     s     0.195923    0.695923    0.000000    0.000000
--------------------------------------------------------------------------------

  Final Cartesian lattice vectors (Angstroms) :

        7.492152    0.000000    0.000000
        0.000000    7.492152    0.000000
        0.000000    0.000000    4.158692


  Final cell parameters and derivatives :

--------------------------------------------------------------------------------
       a            7.492152 Angstrom     dE/de1(xx)    -0.000992 eV/strain
       b            7.492152 Angstrom     dE/de2(yy)     0.000000 eV/strain
       c            4.158692 Angstrom     dE/de3(zz)     0.000260 eV/strain
       alpha       90.000000 Degrees      dE/de4(yz)     0.000000 eV/strain
       beta        90.000000 Degrees      dE/de5(xz)     0.000000 eV/strain
       gamma       90.000000 Degrees      dE/de6(xy)     0.000000 eV/strain
--------------------------------------------------------------------------------

  Primitive cell volume =           233.437123 Angs**3

  Density of cell =      2.271355 g/cm**3

  Non-primitive cell volume =           233.437123 Angs**3


  Final internal derivatives :

--------------------------------------------------------------------------------
   No.  Atomic          a             b             c           Radius
        Label          (eV)          (eV)          (eV)        (eV/Angs)
--------------------------------------------------------------------------------
      1 K     c       0.000000      0.000000      0.000000      0.000000
      2 Cu    c       0.000000      0.000000      0.000000      0.000000
      3 F     c       0.000000      0.000000      0.000000      0.000000
      4 F     c      -0.000736      0.000000      0.000000      0.000000
      5 F     s       0.000000      0.000000      0.000000      0.000000
      6 F     s      -0.002263      0.000000      0.000000      0.000000
--------------------------------------------------------------------------------
  Maximum abs         0.002263      0.000000      0.000000      0.000000
--------------------------------------------------------------------------------


  Born effective charge tensors : 

-------------------------------------------------------------------------------
  Atom             x           y             z
-------------------------------------------------------------------------------
   1 K     x       0.5111     -0.0007      0.0000
           y       0.0007      0.5111      0.0000
           z       0.0000      0.0000      0.5981
-------------------------------------------------------------------------------
   2 Cu    x       1.3911     -0.1897      0.0000
           y      -0.1897      1.3911      0.0000
           z       0.0000      0.0000      1.3051
-------------------------------------------------------------------------------
   3 F     x      -0.6302      0.0068      0.0000
           y       0.0068     -0.6302      0.0000
           z       0.0000      0.0000     -0.5507
-------------------------------------------------------------------------------
   4 F     x      -0.6360     -0.0686      0.0000
           y      -0.0686     -0.6360      0.0000
           z       0.0000      0.0000     -0.6762
-------------------------------------------------------------------------------




  Elastic Constant Matrix: (Units=GPa)

-------------------------------------------------------------------------------
  Indices      1         2         3         4         5         6    
-------------------------------------------------------------------------------
       1     29.3959    5.1700   -1.1453    0.0000    0.0000    0.0000
       2      5.1700   29.3959   -1.1453    0.0000    0.0000    0.0000
       3     -1.1453   -1.1453   70.2724    0.0000    0.0000    0.0000
       4      0.0000    0.0000    0.0000    0.8715    0.0000    0.0000
       5      0.0000    0.0000    0.0000    0.0000    0.8715    0.0000
       6      0.0000    0.0000    0.0000    0.0000    0.0000    2.9138
-------------------------------------------------------------------------------


  Elastic Compliance Matrix: (Units=1/GPa)

-------------------------------------------------------------------------------
  Indices      1         2         3         4         5         6    
-------------------------------------------------------------------------------
       1    0.035120 -0.006158  0.000472  0.000000  0.000000  0.000000
       2   -0.006158  0.035120  0.000472  0.000000  0.000000  0.000000
       3    0.000472  0.000472  0.014246  0.000000  0.000000  0.000000
       4    0.000000  0.000000  0.000000  1.147384  0.000000  0.000000
       5    0.000000  0.000000  0.000000  0.000000  1.147384  0.000000
       6    0.000000  0.000000  0.000000  0.000000  0.000000  0.343193
-------------------------------------------------------------------------------

  Mechanical properties :

-------------------------------------------------------------------------------
  Convention :                    Reuss         Voigt         Hill
-------------------------------------------------------------------------------
  Bulk  Modulus (GPa)     =      13.50312      14.98031      14.24172
  Shear Modulus (GPa)     =       1.81320       9.34371       5.57845
-------------------------------------------------------------------------------
  Velocity S-wave (km/s)  =       0.89347       2.02823       1.56716
  Velocity P-wave (km/s)  =       2.64752       3.47567       3.08947
-------------------------------------------------------------------------------
  Compressibility (1/GPa) =    0.07405695
-------------------------------------------------------------------------------
  Stress axis :                     x             y             z
-------------------------------------------------------------------------------
  Youngs Moduli (GPa)     =      28.47394      28.47394      70.19649
-------------------------------------------------------------------------------
  Poissons Ratio (x)      =                     0.17535      -0.03313
  Poissons Ratio (y)      =       0.17535                    -0.03313
  Poissons Ratio (z)      =      -0.01344      -0.01344
-------------------------------------------------------------------------------


  Piezoelectric Strain Matrix: (Units=C/m**2)

-------------------------------------------------------------------------------
  Indices      1         2         3         4         5         6    
-------------------------------------------------------------------------------
       x     0.00000   0.00000   0.00000   0.00000   0.00000   0.00000
       y     0.00000   0.00000   0.00000   0.00000   0.00000   0.00000
       z     0.00000   0.00000   0.00000   0.00000   0.00000   0.00000
-------------------------------------------------------------------------------


  Piezoelectric Stress Matrix: (Units=10**-11 C/N)

-------------------------------------------------------------------------------
  Indices      1         2         3         4         5         6    
-------------------------------------------------------------------------------
       x     0.00000   0.00000   0.00000   0.00000   0.00000   0.00000
       y     0.00000   0.00000   0.00000   0.00000   0.00000   0.00000
       z     0.00000   0.00000   0.00000   0.00000   0.00000   0.00000
-------------------------------------------------------------------------------


  Static dielectric constant tensor : 

-------------------------------------------------------------------------------
              x         y         z
-------------------------------------------------------------------------------
       x     2.61593   0.00000   0.00000
       y     0.00000   2.61593   0.00000
       z     0.00000   0.00000   1.54212
--------------------------------------------------------------------------------

  High frequency dielectric constant tensor : 

-------------------------------------------------------------------------------
              x         y         z
-------------------------------------------------------------------------------
       x     1.33264   0.00000   0.00000
       y     0.00000   1.33264   0.00000
       z     0.00000   0.00000   1.33859
-------------------------------------------------------------------------------

  Static refractive indices : 

-------------------------------------------------------------------------------
    1 =    1.24182      2 =    1.61738      3 =    1.61738
-------------------------------------------------------------------------------

  High frequency refractive indices : 

-------------------------------------------------------------------------------
    1 =    1.15440      2 =    1.15440      3 =    1.15698
-------------------------------------------------------------------------------


  Time to end of optimisation =       0.0561 seconds


  Peak dynamic memory used =       0.59 MB 


  Timing analysis for GULP :

--------------------------------------------------------------------------------
  Task / Subroutine                                          Time (Seconds)
--------------------------------------------------------------------------------
  Calculation of reciprocal space energy and derivatives          0.0009
  Calculation of reciprocal space energy using symmetry           0.0048
  Calculation of real space energy and derivatives                0.0038
  Calculation of real space energy using symmetry                 0.0426
  Symmetry generation of equivalent positions                     0.0004
--------------------------------------------------------------------------------
  Total CPU time                                                  0.0562
--------------------------------------------------------------------------------


  CIF file written as perov.cif                                               


  Job Finished at 14:07.03  6th April      2017                               

