********************************************************************************
*                       GENERAL UTILITY LATTICE PROGRAM                        *
*                                 Julian Gale                                  *
*                      Nanochemistry Research Institute                        *
*                           Department of Chemistry                            *
*                    Curtin University, Western Australia                      *
********************************************************************************
* Version = 4.3.2 * Last modified =  3rd March 2015                            *
********************************************************************************
*  optimise     - perform optimisation run                                     *
*  conp         - constant pressure calculation                                *
*  property     - calculate properties for final geometry                      *
********************************************************************************

  Job Started  at 14:07.07  6th April      2017                               

  Number of CPUs =     1


  Total number of configurations input =   1

********************************************************************************
*  Input for Configuration =   1                                               *
********************************************************************************

  Formula = K2Cu2F6                                                     

  Number of irreducible atoms/shells =       6


  Total number atoms/shells =      16

  Dimensionality = 3               :  Bulk   


  Symmetry :

  Crystal family                   :  Tetragonal  
  Crystal class  (Groth - 1921)    :  Ditetragonal Dipyramidal             

  Space group (centrosymmetric)    :  P 4/M B M       

  Patterson group                  :  P 4/m m m

  Cartesian lattice vectors (Angstroms) :

        4.200000    0.000000    0.000000
        0.000000    4.200000    0.000000
        0.000000    0.000000    4.200000

  Cell parameters (Angstroms/Degrees):

  a =       4.2000    alpha =  90.0000
  b =       4.2000    beta  =  90.0000
  c =       4.2000    gamma =  90.0000

  Initial cell volume =          74.088000 Angs**3

  Temperature of configuration =  0.000     K 

  Pressure of configuration =         0.000 GPa 

  Fractional coordinates of asymmetric unit :

--------------------------------------------------------------------------------
   No.  Atomic       x           y          z         Charge      Occupancy
        Label      (Frac)      (Frac)     (Frac)        (e)         (Frac)  
--------------------------------------------------------------------------------
      1 K     c    0.000000    0.000000    0.000000     1.10000    1.000000    
      2 Cu    c    0.000000    0.500000    0.000000     1.70000    1.000000    
      3 F     c    0.000000    0.500000    0.500000     0.37800    1.000000    
      4 F     c    0.227100 *  0.727100    0.000000     0.37800    1.000000    
      5 F     s    0.000000    0.500000    0.500000    -1.31133    1.000000    
      6 F     s    0.227100 *  0.727100    0.000000    -1.31133    1.000000    
--------------------------------------------------------------------------------


  Constraints : 

--------------------------------------------------------------------------------
  Constraint no.      Unconstrained     Constrained    Coefficient    Offset
                         Variable         Variable
--------------------------------------------------------------------------------
           1              Strain 1        Strain 2       1.00000      0.0000
           2                 4 x             4 y         1.00000      0.5000
           3                 6 x             6 y         1.00000      0.5000
--------------------------------------------------------------------------------


********************************************************************************
*  General input information                                                   *
********************************************************************************

  Species output for all configurations : 

--------------------------------------------------------------------------------
  Species    Type    Atomic    Atomic    Charge       Radii (Angs)     Library
                     Number     Mass       (e)     Cova   Ionic  VDW   Symbol
--------------------------------------------------------------------------------
    K        Core       19      39.10   1.100000   1.330  0.000  2.800          
    Cu       Core       29      63.55   1.700000   1.520  0.000  1.540          
    F        Core        9      19.00   0.378000   0.710  0.000  1.300          
    F        Shell       9       0.00  -1.311333   0.710  0.000  1.300          
--------------------------------------------------------------------------------


  Lattice summation method               =    Ewald          (3-D)
                                         =    Parry          (2-D)
                                         =    Saunders et al (1-D)
  Accuracy factor for lattice sums       =   12.000


  Time limit = Infinity

  Maximum range for interatomic potentials =    100000.000000 Angstroms

  General interatomic potentials :

--------------------------------------------------------------------------------
Atom  Types   Potential         A         B         C         D     Cutoffs(Ang)
  1     2                                                            Min    Max 
--------------------------------------------------------------------------------
K    c K    c Buckingham    0.219E+04 0.192      0.00      0.00     0.000 10.000
Cu   c F    s Buckingham    0.148E+04 0.266      0.00      0.00     0.000 10.000
F    s F    s Buckingham     912.     0.271      13.8      0.00     0.000 10.000
K    c F    s Buckingham    0.352E+04 0.267      0.00      0.00     0.000 10.000
F    c F    s Spring (c-s)   22.0      0.00      0.00      0.00     0.000  0.800
--------------------------------------------------------------------------------

********************************************************************************
*  Output for configuration   1                                                *
********************************************************************************


  Components of energy : 

--------------------------------------------------------------------------------
  Interatomic potentials     =         162.45946484 eV
  Monopole - monopole (real) =         -39.22750470 eV
  Monopole - monopole (recip)=         -55.83459428 eV
  Monopole - monopole (total)=         -95.06209898 eV
--------------------------------------------------------------------------------
  Total lattice energy       =          67.39736586 eV
--------------------------------------------------------------------------------
  Total lattice energy       =            6502.8155 kJ/(mole unit cells)
--------------------------------------------------------------------------------


  Number of variables =        4

  Maximum number of calculations  =          1000
  Maximum Hessian update interval =            10
  Maximum step size               =   1.000000000
  Maximum parameter tolerance     =   0.000010000
  Maximum function  tolerance     =   0.000010000
  Maximum gradient  tolerance     =   0.001000000
  Maximum gradient  component     =   0.010000000

  Symmetry constrained optimisation

  Symmetry used for second derivatives

  Cell parameters to be optimised using strains

  Newton-Raphson optimiser to be used

  BFGS hessian update to be used

  Start of bulk optimisation :

  Cycle:      0 Energy:        67.397366  Gnorm:    211.921814  CPU:    0.005
  ** Hessian calculated **
  Cycle:      1 Energy:       -59.025821  Gnorm:     25.087366  CPU:    0.012
  ** Hessian calculated **
  Cycle:      2 Energy:       -59.780186  Gnorm:      6.717598  CPU:    0.018
  Cycle:      3 Energy:       -59.894925  Gnorm:      1.146255  CPU:    0.021
  Cycle:      4 Energy:       -59.903454  Gnorm:      1.198704  CPU:    0.025
  Cycle:      5 Energy:       -59.904491  Gnorm:      0.083359  CPU:    0.028
  Cycle:      6 Energy:       -59.904567  Gnorm:      0.076037  CPU:    0.032
  Cycle:      7 Energy:       -59.904571  Gnorm:      0.003213  CPU:    0.035
  Cycle:      8 Energy:       -59.904571  Gnorm:      0.001812  CPU:    0.038


  **** Optimisation achieved ****


  Final energy =     -59.90457084 eV
  Final Gnorm  =       0.00019849

  Components of energy : 

--------------------------------------------------------------------------------
  Interatomic potentials     =           7.98101264 eV
  Monopole - monopole (real) =         -13.28811755 eV
  Monopole - monopole (recip)=         -54.59746593 eV
  Monopole - monopole (total)=         -67.88558347 eV
--------------------------------------------------------------------------------
  Total lattice energy       =         -59.90457084 eV
--------------------------------------------------------------------------------
  Total lattice energy       =           -5779.8754 kJ/(mole unit cells)
--------------------------------------------------------------------------------

  Final asymmetric unit coordinates :

--------------------------------------------------------------------------------
   No.  Atomic        x           y           z         Radius
        Label       (Frac)      (Frac)      (Frac)       (Angs) 
--------------------------------------------------------------------------------
     1  K     c     0.000000    0.000000    0.000000    0.000000
     2  Cu    c     0.000000    0.500000    0.000000    0.000000
     3  F     c     0.000000    0.500000    0.500000    0.000000
     4  F     c     0.223877    0.723877    0.000000    0.000000
     5  F     s     0.000000    0.500000    0.500000    0.000000
     6  F     s     0.221780    0.721780    0.000000    0.000000
--------------------------------------------------------------------------------

  Final Cartesian lattice vectors (Angstroms) :

        6.879030    0.000000    0.000000
        0.000000    6.879030    0.000000
        0.000000    0.000000    4.018800


  Final cell parameters and derivatives :

--------------------------------------------------------------------------------
       a            6.879030 Angstrom     dE/de1(xx)     0.000013 eV/strain
       b            6.879030 Angstrom     dE/de2(yy)     0.000000 eV/strain
       c            4.018800 Angstrom     dE/de3(zz)     0.000043 eV/strain
       alpha       90.000000 Degrees      dE/de4(yz)     0.000000 eV/strain
       beta        90.000000 Degrees      dE/de5(xz)     0.000000 eV/strain
       gamma       90.000000 Degrees      dE/de6(xy)     0.000000 eV/strain
--------------------------------------------------------------------------------

  Primitive cell volume =           190.173862 Angs**3

  Density of cell =      2.788073 g/cm**3

  Non-primitive cell volume =           190.173862 Angs**3


  Final internal derivatives :

--------------------------------------------------------------------------------
   No.  Atomic          a             b             c           Radius
        Label          (eV)          (eV)          (eV)        (eV/Angs)
--------------------------------------------------------------------------------
      1 K     c       0.000000      0.000000      0.000000      0.000000
      2 Cu    c       0.000000      0.000000      0.000000      0.000000
      3 F     c       0.000000      0.000000      0.000000      0.000000
      4 F     c      -0.000365      0.000000      0.000000      0.000000
      5 F     s       0.000000      0.000000      0.000000      0.000000
      6 F     s       0.000704      0.000000      0.000000      0.000000
--------------------------------------------------------------------------------
  Maximum abs         0.000704      0.000000      0.000000      0.000000
--------------------------------------------------------------------------------


  Born effective charge tensors : 

-------------------------------------------------------------------------------
  Atom             x           y             z
-------------------------------------------------------------------------------
   1 K     x       0.9081     -0.0028      0.0000
           y       0.0028      0.9081      0.0000
           z       0.0000      0.0000      1.0850
-------------------------------------------------------------------------------
   2 Cu    x       1.6105     -0.1144      0.0000
           y      -0.1144      1.6105      0.0000
           z       0.0000      0.0000      1.2148
-------------------------------------------------------------------------------
   3 F     x      -0.8430      0.0065      0.0000
           y       0.0065     -0.8430      0.0000
           z       0.0000      0.0000     -0.6853
-------------------------------------------------------------------------------
   4 F     x      -0.8378     -0.2039      0.0000
           y      -0.2039     -0.8378      0.0000
           z       0.0000      0.0000     -0.8073
-------------------------------------------------------------------------------




  Elastic Constant Matrix: (Units=GPa)

-------------------------------------------------------------------------------
  Indices      1         2         3         4         5         6    
-------------------------------------------------------------------------------
       1     75.4253   20.0535   -2.6393    0.0000    0.0000    0.0000
       2     20.0535   75.4253   -2.6393    0.0000    0.0000    0.0000
       3     -2.6393   -2.6393  102.8889    0.0000    0.0000    0.0000
       4      0.0000    0.0000    0.0000    2.8221    0.0000    0.0000
       5      0.0000    0.0000    0.0000    0.0000    2.8221    0.0000
       6      0.0000    0.0000    0.0000    0.0000    0.0000   24.0294
-------------------------------------------------------------------------------


  Elastic Compliance Matrix: (Units=1/GPa)

-------------------------------------------------------------------------------
  Indices      1         2         3         4         5         6    
-------------------------------------------------------------------------------
       1    0.014274 -0.003786  0.000269  0.000000  0.000000  0.000000
       2   -0.003786  0.014274  0.000269  0.000000  0.000000  0.000000
       3    0.000269  0.000269  0.009733  0.000000  0.000000  0.000000
       4    0.000000  0.000000  0.000000  0.354350  0.000000  0.000000
       5    0.000000  0.000000  0.000000  0.000000  0.354350  0.000000
       6    0.000000  0.000000  0.000000  0.000000  0.000000  0.041616
-------------------------------------------------------------------------------

  Mechanical properties :

-------------------------------------------------------------------------------
  Convention :                    Reuss         Voigt         Hill
-------------------------------------------------------------------------------
  Bulk  Modulus (GPa)     =      31.46037      31.47659      31.46848
  Shear Modulus (GPa)     =       6.20588      21.86567      14.03578
-------------------------------------------------------------------------------
  Velocity S-wave (km/s)  =       1.49193       2.80046       2.24371
  Velocity P-wave (km/s)  =       3.77515       4.66331       4.24254
-------------------------------------------------------------------------------
  Compressibility (1/GPa) =    0.03178602
-------------------------------------------------------------------------------
  Stress axis :                     x             y             z
-------------------------------------------------------------------------------
  Youngs Moduli (GPa)     =      70.05710      70.05710     102.74297
-------------------------------------------------------------------------------
  Poissons Ratio (x)      =                     0.26521      -0.02764
  Poissons Ratio (y)      =       0.26521                    -0.02764
  Poissons Ratio (z)      =      -0.01885      -0.01885
-------------------------------------------------------------------------------


  Piezoelectric Strain Matrix: (Units=C/m**2)

-------------------------------------------------------------------------------
  Indices      1         2         3         4         5         6    
-------------------------------------------------------------------------------
       x     0.00000   0.00000   0.00000   0.00000   0.00000   0.00000
       y     0.00000   0.00000   0.00000   0.00000   0.00000   0.00000
       z     0.00000   0.00000   0.00000   0.00000   0.00000   0.00000
-------------------------------------------------------------------------------


  Piezoelectric Stress Matrix: (Units=10**-11 C/N)

-------------------------------------------------------------------------------
  Indices      1         2         3         4         5         6    
-------------------------------------------------------------------------------
       x     0.00000   0.00000   0.00000   0.00000   0.00000   0.00000
       y     0.00000   0.00000   0.00000   0.00000   0.00000   0.00000
       z     0.00000   0.00000   0.00000   0.00000   0.00000   0.00000
-------------------------------------------------------------------------------


  Static dielectric constant tensor : 

-------------------------------------------------------------------------------
              x         y         z
-------------------------------------------------------------------------------
       x    -0.00944   0.00000   0.00000
       y     0.00000  -0.00944   0.00000
       z     0.00000   0.00000   0.82416
--------------------------------------------------------------------------------

  High frequency dielectric constant tensor : 

-------------------------------------------------------------------------------
              x         y         z
-------------------------------------------------------------------------------
       x     1.43241   0.00000   0.00000
       y     0.00000   1.43241   0.00000
       z     0.00000   0.00000   1.40834
-------------------------------------------------------------------------------

  Static refractive indices : 

-------------------------------------------------------------------------------
    1 =   -0.09715      2 =   -0.09715      3 =    0.90783
-------------------------------------------------------------------------------

  High frequency refractive indices : 

-------------------------------------------------------------------------------
    1 =    1.18674      2 =    1.19683      3 =    1.19683
-------------------------------------------------------------------------------


  Time to end of optimisation =       0.0467 seconds


  Peak dynamic memory used =       0.59 MB 


  Timing analysis for GULP :

--------------------------------------------------------------------------------
  Task / Subroutine                                          Time (Seconds)
--------------------------------------------------------------------------------
  Calculation of reciprocal space energy and derivatives          0.0009
  Calculation of reciprocal space energy using symmetry           0.0037
  Calculation of real space energy and derivatives                0.0039
  Calculation of real space energy using symmetry                 0.0343
  Symmetry generation of equivalent positions                     0.0004
--------------------------------------------------------------------------------
  Total CPU time                                                  0.0468
--------------------------------------------------------------------------------


  CIF file written as perov.cif                                               


  Job Finished at 14:07.07  6th April      2017                               

