********************************************************************************
*                       GENERAL UTILITY LATTICE PROGRAM                        *
*                                 Julian Gale                                  *
*                      Nanochemistry Research Institute                        *
*                           Department of Chemistry                            *
*                    Curtin University, Western Australia                      *
********************************************************************************
* Version = 4.3.2 * Last modified =  3rd March 2015                            *
********************************************************************************
*  optimise     - perform optimisation run                                     *
*  conp         - constant pressure calculation                                *
*  property     - calculate properties for final geometry                      *
********************************************************************************

  Job Started  at 14:07.08  6th April      2017                               

  Number of CPUs =     1


  Total number of configurations input =   1

********************************************************************************
*  Input for Configuration =   1                                               *
********************************************************************************

  Formula = K2Cu2F6                                                     

  Number of irreducible atoms/shells =       6


  Total number atoms/shells =      16

  Dimensionality = 3               :  Bulk   


  Symmetry :

  Crystal family                   :  Tetragonal  
  Crystal class  (Groth - 1921)    :  Ditetragonal Dipyramidal             

  Space group (centrosymmetric)    :  P 4/M B M       

  Patterson group                  :  P 4/m m m

  Cartesian lattice vectors (Angstroms) :

        4.200000    0.000000    0.000000
        0.000000    4.200000    0.000000
        0.000000    0.000000    4.200000

  Cell parameters (Angstroms/Degrees):

  a =       4.2000    alpha =  90.0000
  b =       4.2000    beta  =  90.0000
  c =       4.2000    gamma =  90.0000

  Initial cell volume =          74.088000 Angs**3

  Temperature of configuration =  0.000     K 

  Pressure of configuration =         0.000 GPa 

  Fractional coordinates of asymmetric unit :

--------------------------------------------------------------------------------
   No.  Atomic       x           y          z         Charge      Occupancy
        Label      (Frac)      (Frac)     (Frac)        (e)         (Frac)  
--------------------------------------------------------------------------------
      1 K     c    0.000000    0.000000    0.000000     1.20000    1.000000    
      2 Cu    c    0.000000    0.500000    0.000000     2.10000    1.000000    
      3 F     c    0.000000    0.500000    0.500000     0.37800    1.000000    
      4 F     c    0.227100 *  0.727100    0.000000     0.37800    1.000000    
      5 F     s    0.000000    0.500000    0.500000    -1.47800    1.000000    
      6 F     s    0.227100 *  0.727100    0.000000    -1.47800    1.000000    
--------------------------------------------------------------------------------


  Constraints : 

--------------------------------------------------------------------------------
  Constraint no.      Unconstrained     Constrained    Coefficient    Offset
                         Variable         Variable
--------------------------------------------------------------------------------
           1              Strain 1        Strain 2       1.00000      0.0000
           2                 4 x             4 y         1.00000      0.5000
           3                 6 x             6 y         1.00000      0.5000
--------------------------------------------------------------------------------


********************************************************************************
*  General input information                                                   *
********************************************************************************

  Species output for all configurations : 

--------------------------------------------------------------------------------
  Species    Type    Atomic    Atomic    Charge       Radii (Angs)     Library
                     Number     Mass       (e)     Cova   Ionic  VDW   Symbol
--------------------------------------------------------------------------------
    K        Core       19      39.10   1.200000   1.330  0.000  2.800          
    Cu       Core       29      63.55   2.100000   1.520  0.000  1.540          
    F        Core        9      19.00   0.378000   0.710  0.000  1.300          
    F        Shell       9       0.00  -1.478000   0.710  0.000  1.300          
--------------------------------------------------------------------------------


  Lattice summation method               =    Ewald          (3-D)
                                         =    Parry          (2-D)
                                         =    Saunders et al (1-D)
  Accuracy factor for lattice sums       =   12.000


  Time limit = Infinity

  Maximum range for interatomic potentials =    100000.000000 Angstroms

  General interatomic potentials :

--------------------------------------------------------------------------------
Atom  Types   Potential         A         B         C         D     Cutoffs(Ang)
  1     2                                                            Min    Max 
--------------------------------------------------------------------------------
K    c K    c Buckingham    0.219E+04 0.192      0.00      0.00     0.000 10.000
Cu   c F    s Buckingham    0.148E+04 0.266      0.00      0.00     0.000 10.000
F    s F    s Buckingham     912.     0.271      13.8      0.00     0.000 10.000
K    c F    s Buckingham    0.352E+04 0.267      0.00      0.00     0.000 10.000
F    c F    s Spring (c-s)   28.0      0.00      0.00      0.00     0.000  0.800
--------------------------------------------------------------------------------

********************************************************************************
*  Output for configuration   1                                                *
********************************************************************************


  Components of energy : 

--------------------------------------------------------------------------------
  Interatomic potentials     =         162.45946484 eV
  Monopole - monopole (real) =         -55.15533698 eV
  Monopole - monopole (recip)=         -78.89481216 eV
  Monopole - monopole (total)=        -134.05014914 eV
--------------------------------------------------------------------------------
  Total lattice energy       =          28.40931570 eV
--------------------------------------------------------------------------------
  Total lattice energy       =            2741.0647 kJ/(mole unit cells)
--------------------------------------------------------------------------------


  Number of variables =        4

  Maximum number of calculations  =          1000
  Maximum Hessian update interval =            10
  Maximum step size               =   1.000000000
  Maximum parameter tolerance     =   0.000010000
  Maximum function  tolerance     =   0.000010000
  Maximum gradient  tolerance     =   0.001000000
  Maximum gradient  component     =   0.010000000

  Symmetry constrained optimisation

  Symmetry used for second derivatives

  Cell parameters to be optimised using strains

  Newton-Raphson optimiser to be used

  BFGS hessian update to be used

  Start of bulk optimisation :

  Cycle:      0 Energy:        28.409316  Gnorm:    202.320664  CPU:    0.005
  ** Hessian calculated **
  Cycle:      1 Energy:       -87.431510  Gnorm:     29.001125  CPU:    0.012
  ** Hessian calculated **
  Cycle:      2 Energy:       -88.425660  Gnorm:     17.817482  CPU:    0.017
  Cycle:      3 Energy:       -88.894642  Gnorm:      2.757046  CPU:    0.020
  Cycle:      4 Energy:       -89.119577  Gnorm:      4.820496  CPU:    0.024
  Cycle:      5 Energy:       -89.146858  Gnorm:      0.280276  CPU:    0.027
  Cycle:      6 Energy:       -89.149192  Gnorm:      0.146232  CPU:    0.030
  Cycle:      7 Energy:       -89.149250  Gnorm:      0.073661  CPU:    0.033
  Cycle:      8 Energy:       -89.149265  Gnorm:      0.001428  CPU:    0.036


  **** Optimisation achieved ****


  Final energy =     -89.14926483 eV
  Final Gnorm  =       0.00022493

  Components of energy : 

--------------------------------------------------------------------------------
  Interatomic potentials     =          13.02397095 eV
  Monopole - monopole (real) =         -25.18794517 eV
  Monopole - monopole (recip)=         -76.98529061 eV
  Monopole - monopole (total)=        -102.17323577 eV
--------------------------------------------------------------------------------
  Total lattice energy       =         -89.14926483 eV
--------------------------------------------------------------------------------
  Total lattice energy       =           -8601.5413 kJ/(mole unit cells)
--------------------------------------------------------------------------------

  Final asymmetric unit coordinates :

--------------------------------------------------------------------------------
   No.  Atomic        x           y           z         Radius
        Label       (Frac)      (Frac)      (Frac)       (Angs) 
--------------------------------------------------------------------------------
     1  K     c     0.000000    0.000000    0.000000    0.000000
     2  Cu    c     0.000000    0.500000    0.000000    0.000000
     3  F     c     0.000000    0.500000    0.500000    0.000000
     4  F     c     0.210678    0.710678    0.000000    0.000000
     5  F     s     0.000000    0.500000    0.500000    0.000000
     6  F     s     0.207045    0.707045    0.000000    0.000000
--------------------------------------------------------------------------------

  Final Cartesian lattice vectors (Angstroms) :

        6.644862    0.000000    0.000000
        0.000000    6.644862    0.000000
        0.000000    0.000000    3.759592


  Final cell parameters and derivatives :

--------------------------------------------------------------------------------
       a            6.644862 Angstrom     dE/de1(xx)    -0.000172 eV/strain
       b            6.644862 Angstrom     dE/de2(yy)     0.000000 eV/strain
       c            3.759592 Angstrom     dE/de3(zz)     0.000097 eV/strain
       alpha       90.000000 Degrees      dE/de4(yz)     0.000000 eV/strain
       beta        90.000000 Degrees      dE/de5(xz)     0.000000 eV/strain
       gamma       90.000000 Degrees      dE/de6(xy)     0.000000 eV/strain
--------------------------------------------------------------------------------

  Primitive cell volume =           166.001768 Angs**3

  Density of cell =      3.194054 g/cm**3

  Non-primitive cell volume =           166.001768 Angs**3


  Final internal derivatives :

--------------------------------------------------------------------------------
   No.  Atomic          a             b             c           Radius
        Label          (eV)          (eV)          (eV)        (eV/Angs)
--------------------------------------------------------------------------------
      1 K     c       0.000000      0.000000      0.000000      0.000000
      2 Cu    c       0.000000      0.000000      0.000000      0.000000
      3 F     c       0.000000      0.000000      0.000000      0.000000
      4 F     c       0.000266      0.000000      0.000000      0.000000
      5 F     s       0.000000      0.000000      0.000000      0.000000
      6 F     s      -0.000837      0.000000      0.000000      0.000000
--------------------------------------------------------------------------------
  Maximum abs         0.000837      0.000000      0.000000      0.000000
--------------------------------------------------------------------------------


  Born effective charge tensors : 

-------------------------------------------------------------------------------
  Atom             x           y             z
-------------------------------------------------------------------------------
   1 K     x       1.0103     -0.0015      0.0000
           y       0.0015      1.0103      0.0000
           z       0.0000      0.0000      1.1886
-------------------------------------------------------------------------------
   2 Cu    x       1.8160     -0.2175      0.0000
           y      -0.2175      1.8160      0.0000
           z       0.0000      0.0000      1.4889
-------------------------------------------------------------------------------
   3 F     x      -0.9435      0.0119      0.0000
           y       0.0119     -0.9435      0.0000
           z       0.0000      0.0000     -0.7947
-------------------------------------------------------------------------------
   4 F     x      -0.9414     -0.1902      0.0000
           y      -0.1902     -0.9414      0.0000
           z       0.0000      0.0000     -0.9414
-------------------------------------------------------------------------------




  Elastic Constant Matrix: (Units=GPa)

-------------------------------------------------------------------------------
  Indices      1         2         3         4         5         6    
-------------------------------------------------------------------------------
       1    112.8320   24.0146   -4.2217    0.0000    0.0000    0.0000
       2     24.0146  112.8320   -4.2217    0.0000    0.0000    0.0000
       3     -4.2217   -4.2217  161.5402    0.0000    0.0000    0.0000
       4      0.0000    0.0000    0.0000    3.3721    0.0000    0.0000
       5      0.0000    0.0000    0.0000    0.0000    3.3721    0.0000
       6      0.0000    0.0000    0.0000    0.0000    0.0000   24.3224
-------------------------------------------------------------------------------


  Elastic Compliance Matrix: (Units=1/GPa)

-------------------------------------------------------------------------------
  Indices      1         2         3         4         5         6    
-------------------------------------------------------------------------------
       1    0.009289 -0.001970  0.000191  0.000000  0.000000  0.000000
       2   -0.001970  0.009289  0.000191  0.000000  0.000000  0.000000
       3    0.000191  0.000191  0.006200  0.000000  0.000000  0.000000
       4    0.000000  0.000000  0.000000  0.296551  0.000000  0.000000
       5    0.000000  0.000000  0.000000  0.000000  0.296551  0.000000
       6    0.000000  0.000000  0.000000  0.000000  0.000000  0.041114
-------------------------------------------------------------------------------

  Mechanical properties :

-------------------------------------------------------------------------------
  Convention :                    Reuss         Voigt         Hill
-------------------------------------------------------------------------------
  Bulk  Modulus (GPa)     =      46.28765      46.48297      46.38531
  Shear Modulus (GPa)     =       7.46971      30.98885      19.22928
-------------------------------------------------------------------------------
  Velocity S-wave (km/s)  =       1.52926       3.11481       2.45364
  Velocity P-wave (km/s)  =       4.19643       5.24300       4.74863
-------------------------------------------------------------------------------
  Compressibility (1/GPa) =    0.02160403
-------------------------------------------------------------------------------
  Stress axis :                     x             y             z
-------------------------------------------------------------------------------
  Youngs Moduli (GPa)     =     107.65241     107.65241     161.27976
-------------------------------------------------------------------------------
  Poissons Ratio (x)      =                     0.21206      -0.03085
  Poissons Ratio (y)      =       0.21206                    -0.03085
  Poissons Ratio (z)      =      -0.02059      -0.02059
-------------------------------------------------------------------------------


  Piezoelectric Strain Matrix: (Units=C/m**2)

-------------------------------------------------------------------------------
  Indices      1         2         3         4         5         6    
-------------------------------------------------------------------------------
       x     0.00000   0.00000   0.00000   0.00000   0.00000   0.00000
       y     0.00000   0.00000   0.00000   0.00000   0.00000   0.00000
       z     0.00000   0.00000   0.00000   0.00000   0.00000   0.00000
-------------------------------------------------------------------------------


  Piezoelectric Stress Matrix: (Units=10**-11 C/N)

-------------------------------------------------------------------------------
  Indices      1         2         3         4         5         6    
-------------------------------------------------------------------------------
       x     0.00000   0.00000   0.00000   0.00000   0.00000   0.00000
       y     0.00000   0.00000   0.00000   0.00000   0.00000   0.00000
       z     0.00000   0.00000   0.00000   0.00000   0.00000   0.00000
-------------------------------------------------------------------------------


  Static dielectric constant tensor : 

-------------------------------------------------------------------------------
              x         y         z
-------------------------------------------------------------------------------
       x     2.50976   0.00000   0.00000
       y     0.00000   2.50976   0.00000
       z     0.00000   0.00000   0.86553
--------------------------------------------------------------------------------

  High frequency dielectric constant tensor : 

-------------------------------------------------------------------------------
              x         y         z
-------------------------------------------------------------------------------
       x     1.47581   0.00000   0.00000
       y     0.00000   1.47581   0.00000
       z     0.00000   0.00000   1.46307
-------------------------------------------------------------------------------

  Static refractive indices : 

-------------------------------------------------------------------------------
    1 =    0.93034      2 =    1.58422      3 =    1.58422
-------------------------------------------------------------------------------

  High frequency refractive indices : 

-------------------------------------------------------------------------------
    1 =    1.20957      2 =    1.21483      3 =    1.21483
-------------------------------------------------------------------------------


  Time to end of optimisation =       0.0451 seconds


  Peak dynamic memory used =       0.59 MB 


  Timing analysis for GULP :

--------------------------------------------------------------------------------
  Task / Subroutine                                          Time (Seconds)
--------------------------------------------------------------------------------
  Calculation of reciprocal space energy and derivatives          0.0009
  Calculation of reciprocal space energy using symmetry           0.0036
  Calculation of real space energy and derivatives                0.0038
  Calculation of real space energy using symmetry                 0.0330
  Symmetry generation of equivalent positions                     0.0004
--------------------------------------------------------------------------------
  Total CPU time                                                  0.0451
--------------------------------------------------------------------------------


  CIF file written as perov.cif                                               


  Job Finished at 14:07.08  6th April      2017                               

