********************************************************************************
*                       GENERAL UTILITY LATTICE PROGRAM                        *
*                                 Julian Gale                                  *
*                      Nanochemistry Research Institute                        *
*                           Department of Chemistry                            *
*                    Curtin University, Western Australia                      *
********************************************************************************
* Version = 4.3.2 * Last modified =  3rd March 2015                            *
********************************************************************************
*  optimise     - perform optimisation run                                     *
*  conp         - constant pressure calculation                                *
*  property     - calculate properties for final geometry                      *
********************************************************************************

  Job Started  at 14:07.06  6th April      2017                               

  Number of CPUs =     1


  Total number of configurations input =   1

********************************************************************************
*  Input for Configuration =   1                                               *
********************************************************************************

  Formula = K2Cu2F6                                                     

  Number of irreducible atoms/shells =       6


  Total number atoms/shells =      16

  Dimensionality = 3               :  Bulk   


  Symmetry :

  Crystal family                   :  Tetragonal  
  Crystal class  (Groth - 1921)    :  Ditetragonal Dipyramidal             

  Space group (centrosymmetric)    :  P 4/M B M       

  Patterson group                  :  P 4/m m m

  Cartesian lattice vectors (Angstroms) :

        4.200000    0.000000    0.000000
        0.000000    4.200000    0.000000
        0.000000    0.000000    4.200000

  Cell parameters (Angstroms/Degrees):

  a =       4.2000    alpha =  90.0000
  b =       4.2000    beta  =  90.0000
  c =       4.2000    gamma =  90.0000

  Initial cell volume =          74.088000 Angs**3

  Temperature of configuration =  0.000     K 

  Pressure of configuration =         0.000 GPa 

  Fractional coordinates of asymmetric unit :

--------------------------------------------------------------------------------
   No.  Atomic       x           y          z         Charge      Occupancy
        Label      (Frac)      (Frac)     (Frac)        (e)         (Frac)  
--------------------------------------------------------------------------------
      1 K     c    0.000000    0.000000    0.000000     0.90000    1.000000    
      2 Cu    c    0.000000    0.500000    0.000000     2.50000    1.000000    
      3 F     c    0.000000    0.500000    0.500000     0.37800    1.000000    
      4 F     c    0.227100 *  0.727100    0.000000     0.37800    1.000000    
      5 F     s    0.000000    0.500000    0.500000    -1.51133    1.000000    
      6 F     s    0.227100 *  0.727100    0.000000    -1.51133    1.000000    
--------------------------------------------------------------------------------


  Constraints : 

--------------------------------------------------------------------------------
  Constraint no.      Unconstrained     Constrained    Coefficient    Offset
                         Variable         Variable
--------------------------------------------------------------------------------
           1              Strain 1        Strain 2       1.00000      0.0000
           2                 4 x             4 y         1.00000      0.5000
           3                 6 x             6 y         1.00000      0.5000
--------------------------------------------------------------------------------


********************************************************************************
*  General input information                                                   *
********************************************************************************

  Species output for all configurations : 

--------------------------------------------------------------------------------
  Species    Type    Atomic    Atomic    Charge       Radii (Angs)     Library
                     Number     Mass       (e)     Cova   Ionic  VDW   Symbol
--------------------------------------------------------------------------------
    K        Core       19      39.10   0.900000   1.330  0.000  2.800          
    Cu       Core       29      63.55   2.500000   1.520  0.000  1.540          
    F        Core        9      19.00   0.378000   0.710  0.000  1.300          
    F        Shell       9       0.00  -1.511333   0.710  0.000  1.300          
--------------------------------------------------------------------------------


  Lattice summation method               =    Ewald          (3-D)
                                         =    Parry          (2-D)
                                         =    Saunders et al (1-D)
  Accuracy factor for lattice sums       =   12.000


  Time limit = Infinity

  Maximum range for interatomic potentials =    100000.000000 Angstroms

  General interatomic potentials :

--------------------------------------------------------------------------------
Atom  Types   Potential         A         B         C         D     Cutoffs(Ang)
  1     2                                                            Min    Max 
--------------------------------------------------------------------------------
K    c K    c Buckingham    0.219E+04 0.192      0.00      0.00     0.000 10.000
Cu   c F    s Buckingham    0.148E+04 0.266      0.00      0.00     0.000 10.000
F    s F    s Buckingham     912.     0.271      13.8      0.00     0.000 10.000
K    c F    s Buckingham    0.352E+04 0.267      0.00      0.00     0.000 10.000
F    c F    s Spring (c-s)   29.3      0.00      0.00      0.00     0.000  0.800
--------------------------------------------------------------------------------

********************************************************************************
*  Output for configuration   1                                                *
********************************************************************************


  Components of energy : 

--------------------------------------------------------------------------------
  Interatomic potentials     =         162.45946484 eV
  Monopole - monopole (real) =         -61.71586419 eV
  Monopole - monopole (recip)=         -91.03492356 eV
  Monopole - monopole (total)=        -152.75078775 eV
--------------------------------------------------------------------------------
  Total lattice energy       =           9.70867709 eV
--------------------------------------------------------------------------------
  Total lattice energy       =             936.7389 kJ/(mole unit cells)
--------------------------------------------------------------------------------


  Number of variables =        4

  Maximum number of calculations  =          1000
  Maximum Hessian update interval =            10
  Maximum step size               =   1.000000000
  Maximum parameter tolerance     =   0.000010000
  Maximum function  tolerance     =   0.000010000
  Maximum gradient  tolerance     =   0.001000000
  Maximum gradient  component     =   0.010000000

  Symmetry constrained optimisation

  Symmetry used for second derivatives

  Cell parameters to be optimised using strains

  Newton-Raphson optimiser to be used

  BFGS hessian update to be used

  Start of bulk optimisation :

  Cycle:      0 Energy:         9.708677  Gnorm:    197.013300  CPU:    0.005
  ** Hessian calculated **
  Cycle:      1 Energy:       -99.956676  Gnorm:     32.756810  CPU:    0.011
  ** Hessian calculated **
  Cycle:      2 Energy:      -102.117873  Gnorm:     35.058584  CPU:    0.017
  Cycle:      3 Energy:      -104.938562  Gnorm:     13.098001  CPU:    0.021
  Cycle:      4 Energy:      -105.688384  Gnorm:     10.467564  CPU:    0.024
  Cycle:      5 Energy:      -105.933818  Gnorm:      3.226936  CPU:    0.027
  Cycle:      6 Energy:      -105.969633  Gnorm:      2.566643  CPU:    0.030
  Cycle:      7 Energy:      -105.974871  Gnorm:      0.233414  CPU:    0.034
  Cycle:      8 Energy:      -105.975063  Gnorm:      0.035975  CPU:    0.037
  Cycle:      9 Energy:      -105.975073  Gnorm:      0.038737  CPU:    0.040
  Cycle:     10 Energy:      -105.975077  Gnorm:      0.008439  CPU:    0.043
  Cycle:     11 Energy:      -105.975078  Gnorm:      0.003495  CPU:    0.046
  ** Hessian calculated **
  Cycle:     12 Energy:      -105.975078  Gnorm:      0.001550  CPU:    0.051


  **** Optimisation achieved ****


  Final energy =    -105.97507791 eV
  Final Gnorm  =       0.00016068

  Components of energy : 

--------------------------------------------------------------------------------
  Interatomic potentials     =          17.30626603 eV
  Monopole - monopole (real) =         -36.90593403 eV
  Monopole - monopole (recip)=         -86.37540991 eV
  Monopole - monopole (total)=        -123.28134394 eV
--------------------------------------------------------------------------------
  Total lattice energy       =        -105.97507791 eV
--------------------------------------------------------------------------------
  Total lattice energy       =          -10224.9750 kJ/(mole unit cells)
--------------------------------------------------------------------------------

  Final asymmetric unit coordinates :

--------------------------------------------------------------------------------
   No.  Atomic        x           y           z         Radius
        Label       (Frac)      (Frac)      (Frac)       (Angs) 
--------------------------------------------------------------------------------
     1  K     c     0.000000    0.000000    0.000000    0.000000
     2  Cu    c     0.000000    0.500000    0.000000    0.000000
     3  F     c     0.000000    0.500000    0.500000    0.000000
     4  F     c     0.189927    0.689927    0.000000    0.000000
     5  F     s     0.000000    0.500000    0.500000    0.000000
     6  F     s     0.182984    0.682984    0.000000    0.000000
--------------------------------------------------------------------------------

  Final Cartesian lattice vectors (Angstroms) :

        6.822285    0.000000    0.000000
        0.000000    6.822285    0.000000
        0.000000    0.000000    3.623342


  Final cell parameters and derivatives :

--------------------------------------------------------------------------------
       a            6.822285 Angstrom     dE/de1(xx)     0.000119 eV/strain
       b            6.822285 Angstrom     dE/de2(yy)     0.000000 eV/strain
       c            3.623342 Angstrom     dE/de3(zz)     0.000050 eV/strain
       alpha       90.000000 Degrees      dE/de4(yz)     0.000000 eV/strain
       beta        90.000000 Degrees      dE/de5(xz)     0.000000 eV/strain
       gamma       90.000000 Degrees      dE/de6(xy)     0.000000 eV/strain
--------------------------------------------------------------------------------

  Primitive cell volume =           168.643288 Angs**3

  Density of cell =      3.144024 g/cm**3

  Non-primitive cell volume =           168.643288 Angs**3


  Final internal derivatives :

--------------------------------------------------------------------------------
   No.  Atomic          a             b             c           Radius
        Label          (eV)          (eV)          (eV)        (eV/Angs)
--------------------------------------------------------------------------------
      1 K     c       0.000000      0.000000      0.000000      0.000000
      2 Cu    c       0.000000      0.000000      0.000000      0.000000
      3 F     c       0.000000      0.000000      0.000000      0.000000
      4 F     c       0.000577      0.000000      0.000000      0.000000
      5 F     s       0.000000      0.000000      0.000000      0.000000
      6 F     s      -0.000253      0.000000      0.000000      0.000000
--------------------------------------------------------------------------------
  Maximum abs         0.000577      0.000000      0.000000      0.000000
--------------------------------------------------------------------------------


  Born effective charge tensors : 

-------------------------------------------------------------------------------
  Atom             x           y             z
-------------------------------------------------------------------------------
   1 K     x       0.7951      0.0021      0.0000
           y      -0.0021      0.7951      0.0000
           z       0.0000      0.0000      0.9001
-------------------------------------------------------------------------------
   2 Cu    x       1.7805     -0.3637      0.0000
           y      -0.3637      1.7805      0.0000
           z       0.0000      0.0000      1.8523
-------------------------------------------------------------------------------
   3 F     x      -0.8504      0.0132      0.0000
           y       0.0132     -0.8504      0.0000
           z       0.0000      0.0000     -0.8106
-------------------------------------------------------------------------------
   4 F     x      -0.8626     -0.0566      0.0000
           y      -0.0566     -0.8626      0.0000
           z       0.0000      0.0000     -0.9709
-------------------------------------------------------------------------------




  Elastic Constant Matrix: (Units=GPa)

-------------------------------------------------------------------------------
  Indices      1         2         3         4         5         6    
-------------------------------------------------------------------------------
       1     88.2565    9.4965   -4.0472    0.0000    0.0000    0.0000
       2      9.4965   88.2565   -4.0472    0.0000    0.0000    0.0000
       3     -4.0472   -4.0472  187.7963    0.0000    0.0000    0.0000
       4      0.0000    0.0000    0.0000    0.9527    0.0000    0.0000
       5      0.0000    0.0000    0.0000    0.0000    0.9527    0.0000
       6      0.0000    0.0000    0.0000    0.0000    0.0000    6.2966
-------------------------------------------------------------------------------


  Elastic Compliance Matrix: (Units=1/GPa)

-------------------------------------------------------------------------------
  Indices      1         2         3         4         5         6    
-------------------------------------------------------------------------------
       1    0.011472 -0.001224  0.000221  0.000000  0.000000  0.000000
       2   -0.001224  0.011472  0.000221  0.000000  0.000000  0.000000
       3    0.000221  0.000221  0.005334  0.000000  0.000000  0.000000
       4    0.000000  0.000000  0.000000  1.049702  0.000000  0.000000
       5    0.000000  0.000000  0.000000  0.000000  1.049702  0.000000
       6    0.000000  0.000000  0.000000  0.000000  0.000000  0.158817
-------------------------------------------------------------------------------

  Mechanical properties :

-------------------------------------------------------------------------------
  Convention :                    Reuss         Voigt         Hill
-------------------------------------------------------------------------------
  Bulk  Modulus (GPa)     =      37.43331      40.79039      39.11185
  Shear Modulus (GPa)     =       2.17678      25.83419      14.00548
-------------------------------------------------------------------------------
  Velocity S-wave (km/s)  =       0.83208       2.86652       2.11060
  Velocity P-wave (km/s)  =       3.58180       4.89181       4.28714
-------------------------------------------------------------------------------
  Compressibility (1/GPa) =    0.02671418
-------------------------------------------------------------------------------
  Stress axis :                     x             y             z
-------------------------------------------------------------------------------
  Youngs Moduli (GPa)     =      87.16513      87.16513     187.46120
-------------------------------------------------------------------------------
  Poissons Ratio (x)      =                     0.10672      -0.04140
  Poissons Ratio (y)      =       0.10672                    -0.04140
  Poissons Ratio (z)      =      -0.01925      -0.01925
-------------------------------------------------------------------------------


  Piezoelectric Strain Matrix: (Units=C/m**2)

-------------------------------------------------------------------------------
  Indices      1         2         3         4         5         6    
-------------------------------------------------------------------------------
       x     0.00000   0.00000   0.00000   0.00000   0.00000   0.00000
       y     0.00000   0.00000   0.00000   0.00000   0.00000   0.00000
       z     0.00000   0.00000   0.00000   0.00000   0.00000   0.00000
-------------------------------------------------------------------------------


  Piezoelectric Stress Matrix: (Units=10**-11 C/N)

-------------------------------------------------------------------------------
  Indices      1         2         3         4         5         6    
-------------------------------------------------------------------------------
       x     0.00000   0.00000   0.00000   0.00000   0.00000   0.00000
       y     0.00000   0.00000   0.00000   0.00000   0.00000   0.00000
       z     0.00000   0.00000   0.00000   0.00000   0.00000   0.00000
-------------------------------------------------------------------------------


  Static dielectric constant tensor : 

-------------------------------------------------------------------------------
              x         y         z
-------------------------------------------------------------------------------
       x   -12.71874   0.00000   0.00000
       y     0.00000 -12.71874   0.00000
       z     0.00000   0.00000   1.30095
--------------------------------------------------------------------------------

  High frequency dielectric constant tensor : 

-------------------------------------------------------------------------------
              x         y         z
-------------------------------------------------------------------------------
       x     1.42542   0.00000   0.00000
       y     0.00000   1.42542   0.00000
       z     0.00000   0.00000   1.45848
-------------------------------------------------------------------------------

  Static refractive indices : 

-------------------------------------------------------------------------------
    1 =   -3.56633      2 =   -3.56633      3 =    1.14059
-------------------------------------------------------------------------------

  High frequency refractive indices : 

-------------------------------------------------------------------------------
    1 =    1.19391      2 =    1.19391      3 =    1.20768
-------------------------------------------------------------------------------


  Time to end of optimisation =       0.0600 seconds


  Peak dynamic memory used =       0.59 MB 


  Timing analysis for GULP :

--------------------------------------------------------------------------------
  Task / Subroutine                                          Time (Seconds)
--------------------------------------------------------------------------------
  Calculation of reciprocal space energy and derivatives          0.0010
  Calculation of reciprocal space energy using symmetry           0.0051
  Calculation of real space energy and derivatives                0.0040
  Calculation of real space energy using symmetry                 0.0459
  Symmetry generation of equivalent positions                     0.0005
--------------------------------------------------------------------------------
  Total CPU time                                                  0.0601
--------------------------------------------------------------------------------


  CIF file written as perov.cif                                               


  Job Finished at 14:07.06  6th April      2017                               

