********************************************************************************
*                       GENERAL UTILITY LATTICE PROGRAM                        *
*                                 Julian Gale                                  *
*                      Nanochemistry Research Institute                        *
*                           Department of Chemistry                            *
*                    Curtin University, Western Australia                      *
********************************************************************************
* Version = 4.3.2 * Last modified =  3rd March 2015                            *
********************************************************************************
*  optimise     - perform optimisation run                                     *
*  conp         - constant pressure calculation                                *
*  property     - calculate properties for final geometry                      *
********************************************************************************

  Job Started  at 14:07.08  6th April      2017                               

  Number of CPUs =     1


  Total number of configurations input =   1

********************************************************************************
*  Input for Configuration =   1                                               *
********************************************************************************

  Formula = K2Cu2F6                                                     

  Number of irreducible atoms/shells =       6


  Total number atoms/shells =      16

  Dimensionality = 3               :  Bulk   


  Symmetry :

  Crystal family                   :  Tetragonal  
  Crystal class  (Groth - 1921)    :  Ditetragonal Dipyramidal             

  Space group (centrosymmetric)    :  P 4/M B M       

  Patterson group                  :  P 4/m m m

  Cartesian lattice vectors (Angstroms) :

        4.200000    0.000000    0.000000
        0.000000    4.200000    0.000000
        0.000000    0.000000    4.200000

  Cell parameters (Angstroms/Degrees):

  a =       4.2000    alpha =  90.0000
  b =       4.2000    beta  =  90.0000
  c =       4.2000    gamma =  90.0000

  Initial cell volume =          74.088000 Angs**3

  Temperature of configuration =  0.000     K 

  Pressure of configuration =         0.000 GPa 

  Fractional coordinates of asymmetric unit :

--------------------------------------------------------------------------------
   No.  Atomic       x           y          z         Charge      Occupancy
        Label      (Frac)      (Frac)     (Frac)        (e)         (Frac)  
--------------------------------------------------------------------------------
      1 K     c    0.000000    0.000000    0.000000     1.20000    1.000000    
      2 Cu    c    0.000000    0.500000    0.000000     2.40000    1.000000    
      3 F     c    0.000000    0.500000    0.500000     0.37800    1.000000    
      4 F     c    0.227100 *  0.727100    0.000000     0.37800    1.000000    
      5 F     s    0.000000    0.500000    0.500000    -1.57800    1.000000    
      6 F     s    0.227100 *  0.727100    0.000000    -1.57800    1.000000    
--------------------------------------------------------------------------------


  Constraints : 

--------------------------------------------------------------------------------
  Constraint no.      Unconstrained     Constrained    Coefficient    Offset
                         Variable         Variable
--------------------------------------------------------------------------------
           1              Strain 1        Strain 2       1.00000      0.0000
           2                 4 x             4 y         1.00000      0.5000
           3                 6 x             6 y         1.00000      0.5000
--------------------------------------------------------------------------------


********************************************************************************
*  General input information                                                   *
********************************************************************************

  Species output for all configurations : 

--------------------------------------------------------------------------------
  Species    Type    Atomic    Atomic    Charge       Radii (Angs)     Library
                     Number     Mass       (e)     Cova   Ionic  VDW   Symbol
--------------------------------------------------------------------------------
    K        Core       19      39.10   1.200000   1.330  0.000  2.800          
    Cu       Core       29      63.55   2.400000   1.520  0.000  1.540          
    F        Core        9      19.00   0.378000   0.710  0.000  1.300          
    F        Shell       9       0.00  -1.578000   0.710  0.000  1.300          
--------------------------------------------------------------------------------


  Lattice summation method               =    Ewald          (3-D)
                                         =    Parry          (2-D)
                                         =    Saunders et al (1-D)
  Accuracy factor for lattice sums       =   12.000


  Time limit = Infinity

  Maximum range for interatomic potentials =    100000.000000 Angstroms

  General interatomic potentials :

--------------------------------------------------------------------------------
Atom  Types   Potential         A         B         C         D     Cutoffs(Ang)
  1     2                                                            Min    Max 
--------------------------------------------------------------------------------
K    c K    c Buckingham    0.219E+04 0.192      0.00      0.00     0.000 10.000
Cu   c F    s Buckingham    0.148E+04 0.266      0.00      0.00     0.000 10.000
F    s F    s Buckingham     912.     0.271      13.8      0.00     0.000 10.000
K    c F    s Buckingham    0.352E+04 0.267      0.00      0.00     0.000 10.000
F    c F    s Spring (c-s)   31.9      0.00      0.00      0.00     0.000  0.800
--------------------------------------------------------------------------------

********************************************************************************
*  Output for configuration   1                                                *
********************************************************************************


  Components of energy : 

--------------------------------------------------------------------------------
  Interatomic potentials     =         162.45946484 eV
  Monopole - monopole (real) =         -66.58549715 eV
  Monopole - monopole (recip)=         -95.93838534 eV
  Monopole - monopole (total)=        -162.52388250 eV
--------------------------------------------------------------------------------
  Total lattice energy       =          -0.06441765 eV
--------------------------------------------------------------------------------
  Total lattice energy       =              -6.2153 kJ/(mole unit cells)
--------------------------------------------------------------------------------


  Number of variables =        4

  Maximum number of calculations  =          1000
  Maximum Hessian update interval =            10
  Maximum step size               =   1.000000000
  Maximum parameter tolerance     =   0.000010000
  Maximum function  tolerance     =   0.000010000
  Maximum gradient  tolerance     =   0.001000000
  Maximum gradient  component     =   0.010000000

  Symmetry constrained optimisation

  Symmetry used for second derivatives

  Cell parameters to be optimised using strains

  Newton-Raphson optimiser to be used

  BFGS hessian update to be used

  Start of bulk optimisation :

  Cycle:      0 Energy:        -0.064418  Gnorm:    195.491546  CPU:    0.005
  ** Hessian calculated **
  Cycle:      1 Energy:      -107.226172  Gnorm:     30.616197  CPU:    0.012
  ** Hessian calculated **
  Cycle:      2 Energy:      -111.451054  Gnorm:      9.417488  CPU:    0.017
  Cycle:      3 Energy:      -111.667613  Gnorm:     10.324262  CPU:    0.021
  Cycle:      4 Energy:      -111.993418  Gnorm:      5.704604  CPU:    0.025
  Cycle:      5 Energy:      -112.047769  Gnorm:      0.209031  CPU:    0.028
  Cycle:      6 Energy:      -112.049383  Gnorm:      0.213564  CPU:    0.031
  Cycle:      7 Energy:      -112.049439  Gnorm:      0.031941  CPU:    0.034
  Cycle:      8 Energy:      -112.049444  Gnorm:      0.016927  CPU:    0.038
  Cycle:      9 Energy:      -112.049444  Gnorm:      0.003136  CPU:    0.041


  **** Optimisation achieved ****


  Final energy =    -112.04944414 eV
  Final Gnorm  =       0.00045390

  Components of energy : 

--------------------------------------------------------------------------------
  Interatomic potentials     =          17.53334720 eV
  Monopole - monopole (real) =         -36.05407714 eV
  Monopole - monopole (recip)=         -93.52871420 eV
  Monopole - monopole (total)=        -129.58279134 eV
--------------------------------------------------------------------------------
  Total lattice energy       =        -112.04944414 eV
--------------------------------------------------------------------------------
  Total lattice energy       =          -10811.0585 kJ/(mole unit cells)
--------------------------------------------------------------------------------

  Final asymmetric unit coordinates :

--------------------------------------------------------------------------------
   No.  Atomic        x           y           z         Radius
        Label       (Frac)      (Frac)      (Frac)       (Angs) 
--------------------------------------------------------------------------------
     1  K     c     0.000000    0.000000    0.000000    0.000000
     2  Cu    c     0.000000    0.500000    0.000000    0.000000
     3  F     c     0.000000    0.500000    0.500000    0.000000
     4  F     c     0.200983    0.700983    0.000000    0.000000
     5  F     s     0.000000    0.500000    0.500000    0.000000
     6  F     s     0.195948    0.695948    0.000000    0.000000
--------------------------------------------------------------------------------

  Final Cartesian lattice vectors (Angstroms) :

        6.555509    0.000000    0.000000
        0.000000    6.555509    0.000000
        0.000000    0.000000    3.607702


  Final cell parameters and derivatives :

--------------------------------------------------------------------------------
       a            6.555509 Angstrom     dE/de1(xx)    -0.000119 eV/strain
       b            6.555509 Angstrom     dE/de2(yy)     0.000000 eV/strain
       c            3.607702 Angstrom     dE/de3(zz)    -0.000143 eV/strain
       alpha       90.000000 Degrees      dE/de4(yz)     0.000000 eV/strain
       beta        90.000000 Degrees      dE/de5(xz)     0.000000 eV/strain
       gamma       90.000000 Degrees      dE/de6(xy)     0.000000 eV/strain
--------------------------------------------------------------------------------

  Primitive cell volume =           155.039921 Angs**3

  Density of cell =      3.419884 g/cm**3

  Non-primitive cell volume =           155.039921 Angs**3


  Final internal derivatives :

--------------------------------------------------------------------------------
   No.  Atomic          a             b             c           Radius
        Label          (eV)          (eV)          (eV)        (eV/Angs)
--------------------------------------------------------------------------------
      1 K     c       0.000000      0.000000      0.000000      0.000000
      2 Cu    c       0.000000      0.000000      0.000000      0.000000
      3 F     c       0.000000      0.000000      0.000000      0.000000
      4 F     c      -0.000965      0.000000      0.000000      0.000000
      5 F     s       0.000000      0.000000      0.000000      0.000000
      6 F     s       0.001526      0.000000      0.000000      0.000000
--------------------------------------------------------------------------------
  Maximum abs         0.001526      0.000000      0.000000      0.000000
--------------------------------------------------------------------------------


  Born effective charge tensors : 

-------------------------------------------------------------------------------
  Atom             x           y             z
-------------------------------------------------------------------------------
   1 K     x       1.0342      0.0013      0.0000
           y      -0.0013      1.0342      0.0000
           z       0.0000      0.0000      1.1931
-------------------------------------------------------------------------------
   2 Cu    x       1.8966     -0.3024      0.0000
           y      -0.3024      1.8966      0.0000
           z       0.0000      0.0000      1.7182
-------------------------------------------------------------------------------
   3 F     x      -0.9723      0.0149      0.0000
           y       0.0149     -0.9723      0.0000
           z       0.0000      0.0000     -0.8697
-------------------------------------------------------------------------------
   4 F     x      -0.9792     -0.1521      0.0000
           y      -0.1521     -0.9792      0.0000
           z       0.0000      0.0000     -1.0208
-------------------------------------------------------------------------------




  Elastic Constant Matrix: (Units=GPa)

-------------------------------------------------------------------------------
  Indices      1         2         3         4         5         6    
-------------------------------------------------------------------------------
       1    133.0788   22.5585   -5.3687    0.0000    0.0000    0.0000
       2     22.5585  133.0788   -5.3687    0.0000    0.0000    0.0000
       3     -5.3687   -5.3687  206.6074    0.0000    0.0000    0.0000
       4      0.0000    0.0000    0.0000    2.6751    0.0000    0.0000
       5      0.0000    0.0000    0.0000    0.0000    2.6751    0.0000
       6      0.0000    0.0000    0.0000    0.0000    0.0000   20.6351
-------------------------------------------------------------------------------


  Elastic Compliance Matrix: (Units=1/GPa)

-------------------------------------------------------------------------------
  Indices      1         2         3         4         5         6    
-------------------------------------------------------------------------------
       1    0.007742 -0.001306  0.000167  0.000000  0.000000  0.000000
       2   -0.001306  0.007742  0.000167  0.000000  0.000000  0.000000
       3    0.000167  0.000167  0.004849  0.000000  0.000000  0.000000
       4    0.000000  0.000000  0.000000  0.373816  0.000000  0.000000
       5    0.000000  0.000000  0.000000  0.000000  0.373816  0.000000
       6    0.000000  0.000000  0.000000  0.000000  0.000000  0.048461
-------------------------------------------------------------------------------

  Mechanical properties :

-------------------------------------------------------------------------------
  Convention :                    Reuss         Voigt         Hill
-------------------------------------------------------------------------------
  Bulk  Modulus (GPa)     =      54.37356      55.15636      54.76496
  Shear Modulus (GPa)     =       6.06429      35.92667      20.99548
-------------------------------------------------------------------------------
  Velocity S-wave (km/s)  =       1.33163       3.24118       2.47775
  Velocity P-wave (km/s)  =       4.27359       5.48955       4.91928
-------------------------------------------------------------------------------
  Compressibility (1/GPa) =    0.01839129
-------------------------------------------------------------------------------
  Stress axis :                     x             y             z
-------------------------------------------------------------------------------
  Youngs Moduli (GPa)     =     129.15854     129.15854     206.23701
-------------------------------------------------------------------------------
  Poissons Ratio (x)      =                     0.16864      -0.03449
  Poissons Ratio (y)      =       0.16864                    -0.03449
  Poissons Ratio (z)      =      -0.02160      -0.02160
-------------------------------------------------------------------------------


  Piezoelectric Strain Matrix: (Units=C/m**2)

-------------------------------------------------------------------------------
  Indices      1         2         3         4         5         6    
-------------------------------------------------------------------------------
       x     0.00000   0.00000   0.00000   0.00000   0.00000   0.00000
       y     0.00000   0.00000   0.00000   0.00000   0.00000   0.00000
       z     0.00000   0.00000   0.00000   0.00000   0.00000   0.00000
-------------------------------------------------------------------------------


  Piezoelectric Stress Matrix: (Units=10**-11 C/N)

-------------------------------------------------------------------------------
  Indices      1         2         3         4         5         6    
-------------------------------------------------------------------------------
       x     0.00000   0.00000   0.00000   0.00000   0.00000   0.00000
       y     0.00000   0.00000   0.00000   0.00000   0.00000   0.00000
       z     0.00000   0.00000   0.00000   0.00000   0.00000   0.00000
-------------------------------------------------------------------------------


  Static dielectric constant tensor : 

-------------------------------------------------------------------------------
              x         y         z
-------------------------------------------------------------------------------
       x    10.20852   0.00000   0.00000
       y     0.00000  10.20852   0.00000
       z     0.00000   0.00000   0.94228
--------------------------------------------------------------------------------

  High frequency dielectric constant tensor : 

-------------------------------------------------------------------------------
              x         y         z
-------------------------------------------------------------------------------
       x     1.48856   0.00000   0.00000
       y     0.00000   1.48856   0.00000
       z     0.00000   0.00000   1.49521
-------------------------------------------------------------------------------

  Static refractive indices : 

-------------------------------------------------------------------------------
    1 =    0.97071      2 =    3.19508      3 =    3.19508
-------------------------------------------------------------------------------

  High frequency refractive indices : 

-------------------------------------------------------------------------------
    1 =    1.22006      2 =    1.22006      3 =    1.22279
-------------------------------------------------------------------------------


  Time to end of optimisation =       0.0494 seconds


  Peak dynamic memory used =       0.59 MB 


  Timing analysis for GULP :

--------------------------------------------------------------------------------
  Task / Subroutine                                          Time (Seconds)
--------------------------------------------------------------------------------
  Calculation of reciprocal space energy and derivatives          0.0009
  Calculation of reciprocal space energy using symmetry           0.0040
  Calculation of real space energy and derivatives                0.0038
  Calculation of real space energy using symmetry                 0.0366
  Symmetry generation of equivalent positions                     0.0004
--------------------------------------------------------------------------------
  Total CPU time                                                  0.0494
--------------------------------------------------------------------------------


  CIF file written as perov.cif                                               


  Job Finished at 14:07.08  6th April      2017                               

