********************************************************************************
*                       GENERAL UTILITY LATTICE PROGRAM                        *
*                                 Julian Gale                                  *
*                      Nanochemistry Research Institute                        *
*                           Department of Chemistry                            *
*                    Curtin University, Western Australia                      *
********************************************************************************
* Version = 4.3.2 * Last modified =  3rd March 2015                            *
********************************************************************************
*  optimise     - perform optimisation run                                     *
*  conp         - constant pressure calculation                                *
*  property     - calculate properties for final geometry                      *
********************************************************************************

  Job Started  at 14:07.02  6th April      2017                               

  Number of CPUs =     1


  Total number of configurations input =   1

********************************************************************************
*  Input for Configuration =   1                                               *
********************************************************************************

  Formula = K2Cu2F6                                                     

  Number of irreducible atoms/shells =       6


  Total number atoms/shells =      16

  Dimensionality = 3               :  Bulk   


  Symmetry :

  Crystal family                   :  Tetragonal  
  Crystal class  (Groth - 1921)    :  Ditetragonal Dipyramidal             

  Space group (centrosymmetric)    :  P 4/M B M       

  Patterson group                  :  P 4/m m m

  Cartesian lattice vectors (Angstroms) :

        4.200000    0.000000    0.000000
        0.000000    4.200000    0.000000
        0.000000    0.000000    4.200000

  Cell parameters (Angstroms/Degrees):

  a =       4.2000    alpha =  90.0000
  b =       4.2000    beta  =  90.0000
  c =       4.2000    gamma =  90.0000

  Initial cell volume =          74.088000 Angs**3

  Temperature of configuration =  0.000     K 

  Pressure of configuration =         0.000 GPa 

  Fractional coordinates of asymmetric unit :

--------------------------------------------------------------------------------
   No.  Atomic       x           y          z         Charge      Occupancy
        Label      (Frac)      (Frac)     (Frac)        (e)         (Frac)  
--------------------------------------------------------------------------------
      1 K     c    0.000000    0.000000    0.000000     0.50000    1.000000    
      2 Cu    c    0.000000    0.500000    0.000000     1.90000    1.000000    
      3 F     c    0.000000    0.500000    0.500000     0.37800    1.000000    
      4 F     c    0.227100 *  0.727100    0.000000     0.37800    1.000000    
      5 F     s    0.000000    0.500000    0.500000    -1.17800    1.000000    
      6 F     s    0.227100 *  0.727100    0.000000    -1.17800    1.000000    
--------------------------------------------------------------------------------


  Constraints : 

--------------------------------------------------------------------------------
  Constraint no.      Unconstrained     Constrained    Coefficient    Offset
                         Variable         Variable
--------------------------------------------------------------------------------
           1              Strain 1        Strain 2       1.00000      0.0000
           2                 4 x             4 y         1.00000      0.5000
           3                 6 x             6 y         1.00000      0.5000
--------------------------------------------------------------------------------


********************************************************************************
*  General input information                                                   *
********************************************************************************

  Species output for all configurations : 

--------------------------------------------------------------------------------
  Species    Type    Atomic    Atomic    Charge       Radii (Angs)     Library
                     Number     Mass       (e)     Cova   Ionic  VDW   Symbol
--------------------------------------------------------------------------------
    K        Core       19      39.10   0.500000   1.330  0.000  2.800          
    Cu       Core       29      63.55   1.900000   1.520  0.000  1.540          
    F        Core        9      19.00   0.378000   0.710  0.000  1.300          
    F        Shell       9       0.00  -1.178000   0.710  0.000  1.300          
--------------------------------------------------------------------------------


  Lattice summation method               =    Ewald          (3-D)
                                         =    Parry          (2-D)
                                         =    Saunders et al (1-D)
  Accuracy factor for lattice sums       =   12.000


  Time limit = Infinity

  Maximum range for interatomic potentials =    100000.000000 Angstroms

  General interatomic potentials :

--------------------------------------------------------------------------------
Atom  Types   Potential         A         B         C         D     Cutoffs(Ang)
  1     2                                                            Min    Max 
--------------------------------------------------------------------------------
K    c K    c Buckingham    0.219E+04 0.192      0.00      0.00     0.000 10.000
Cu   c F    s Buckingham    0.148E+04 0.266      0.00      0.00     0.000 10.000
F    s F    s Buckingham     912.     0.271      13.8      0.00     0.000 10.000
K    c F    s Buckingham    0.352E+04 0.267      0.00      0.00     0.000 10.000
F    c F    s Spring (c-s)   17.8      0.00      0.00      0.00     0.000  0.800
--------------------------------------------------------------------------------

********************************************************************************
*  Output for configuration   1                                                *
********************************************************************************


  Components of energy : 

--------------------------------------------------------------------------------
  Interatomic potentials     =         162.45946484 eV
  Monopole - monopole (real) =         -31.91515611 eV
  Monopole - monopole (recip)=         -48.28008211 eV
  Monopole - monopole (total)=         -80.19523823 eV
--------------------------------------------------------------------------------
  Total lattice energy       =          82.26422662 eV
--------------------------------------------------------------------------------
  Total lattice energy       =            7937.2403 kJ/(mole unit cells)
--------------------------------------------------------------------------------


  Number of variables =        4

  Maximum number of calculations  =          1000
  Maximum Hessian update interval =            10
  Maximum step size               =   1.000000000
  Maximum parameter tolerance     =   0.000010000
  Maximum function  tolerance     =   0.000010000
  Maximum gradient  tolerance     =   0.001000000
  Maximum gradient  component     =   0.010000000

  Symmetry constrained optimisation

  Symmetry used for second derivatives

  Cell parameters to be optimised using strains

  Newton-Raphson optimiser to be used

  BFGS hessian update to be used

  Start of bulk optimisation :

  Cycle:      0 Energy:        82.264227  Gnorm:    213.786792  CPU:    0.005
  ** Hessian calculated **
  Cycle:      1 Energy:       -48.742849  Gnorm:     31.115717  CPU:    0.012
  ** Hessian calculated **
  Cycle:      2 Energy:       -50.049024  Gnorm:      8.068705  CPU:    0.018
  Cycle:      3 Energy:       -50.636862  Gnorm:     16.422389  CPU:    0.023
  ** Hessian calculated **
  Cycle:      4 Energy:       -50.922556  Gnorm:      9.820558  CPU:    0.028
  Cycle:      5 Energy:       -51.003527  Gnorm:      1.497115  CPU:    0.031
  Cycle:      6 Energy:       -51.011458  Gnorm:      0.755264  CPU:    0.035
  Cycle:      7 Energy:       -51.013520  Gnorm:      0.529772  CPU:    0.038
  Cycle:      8 Energy:       -51.013816  Gnorm:      0.068346  CPU:    0.041
  Cycle:      9 Energy:       -51.013840  Gnorm:      0.089330  CPU:    0.045
  Cycle:     10 Energy:       -51.013855  Gnorm:      0.067602  CPU:    0.048
  Cycle:     11 Energy:       -51.013860  Gnorm:      0.011781  CPU:    0.051
  Cycle:     12 Energy:       -51.013861  Gnorm:      0.011094  CPU:    0.054
  Cycle:     13 Energy:       -51.013861  Gnorm:      0.009993  CPU:    0.057
  ** Hessian calculated **
  Cycle:     14 Energy:       -51.013861  Gnorm:      0.001067  CPU:    0.062
  Cycle:     15 Energy:       -51.013861  Gnorm:      0.001051  CPU:    0.065


  **** Optimisation achieved ****


  Final energy =     -51.01386143 eV
  Final Gnorm  =       0.00094465

  Components of energy : 

--------------------------------------------------------------------------------
  Interatomic potentials     =           7.46970379 eV
  Monopole - monopole (real) =         -13.92206817 eV
  Monopole - monopole (recip)=         -44.56149705 eV
  Monopole - monopole (total)=         -58.48356522 eV
--------------------------------------------------------------------------------
  Total lattice energy       =         -51.01386143 eV
--------------------------------------------------------------------------------
  Total lattice energy       =           -4922.0578 kJ/(mole unit cells)
--------------------------------------------------------------------------------

  Final asymmetric unit coordinates :

--------------------------------------------------------------------------------
   No.  Atomic        x           y           z         Radius
        Label       (Frac)      (Frac)      (Frac)       (Angs) 
--------------------------------------------------------------------------------
     1  K     c     0.000000    0.000000    0.000000    0.000000
     2  Cu    c     0.000000    0.500000    0.000000    0.000000
     3  F     c     0.000000    0.500000    0.500000    0.000000
     4  F     c     0.192176    0.692176    0.000000    0.000000
     5  F     s     0.000000    0.500000    0.500000    0.000000
     6  F     s     0.185650    0.685650    0.000000    0.000000
--------------------------------------------------------------------------------

  Final Cartesian lattice vectors (Angstroms) :

        7.540234    0.000000    0.000000
        0.000000    7.540234    0.000000
        0.000000    0.000000    4.056518


  Final cell parameters and derivatives :

--------------------------------------------------------------------------------
       a            7.540234 Angstrom     dE/de1(xx)     0.000240 eV/strain
       b            7.540234 Angstrom     dE/de2(yy)     0.000000 eV/strain
       c            4.056518 Angstrom     dE/de3(zz)    -0.000121 eV/strain
       alpha       90.000000 Degrees      dE/de4(yz)     0.000000 eV/strain
       beta        90.000000 Degrees      dE/de5(xz)     0.000000 eV/strain
       gamma       90.000000 Degrees      dE/de6(xy)     0.000000 eV/strain
--------------------------------------------------------------------------------

  Primitive cell volume =           230.633873 Angs**3

  Density of cell =      2.298962 g/cm**3

  Non-primitive cell volume =           230.633873 Angs**3


  Final internal derivatives :

--------------------------------------------------------------------------------
   No.  Atomic          a             b             c           Radius
        Label          (eV)          (eV)          (eV)        (eV/Angs)
--------------------------------------------------------------------------------
      1 K     c       0.000000      0.000000      0.000000      0.000000
      2 Cu    c       0.000000      0.000000      0.000000      0.000000
      3 F     c       0.000000      0.000000      0.000000      0.000000
      4 F     c      -0.001563      0.000000      0.000000      0.000000
      5 F     s       0.000000      0.000000      0.000000      0.000000
      6 F     s       0.003430      0.000000      0.000000      0.000000
--------------------------------------------------------------------------------
  Maximum abs         0.003430      0.000000      0.000000      0.000000
--------------------------------------------------------------------------------


  Born effective charge tensors : 

-------------------------------------------------------------------------------
  Atom             x           y             z
-------------------------------------------------------------------------------
   1 K     x       0.4262     -0.0001      0.0000
           y       0.0001      0.4262      0.0000
           z       0.0000      0.0000      0.5022
-------------------------------------------------------------------------------
   2 Cu    x       1.4447     -0.2491      0.0000
           y      -0.2491      1.4447      0.0000
           z       0.0000      0.0000      1.4724
-------------------------------------------------------------------------------
   3 F     x      -0.6217      0.0079      0.0000
           y       0.0079     -0.6217      0.0000
           z       0.0000      0.0000     -0.5647
-------------------------------------------------------------------------------
   4 F     x      -0.6246     -0.0296      0.0000
           y      -0.0296     -0.6246      0.0000
           z       0.0000      0.0000     -0.7049
-------------------------------------------------------------------------------




  Elastic Constant Matrix: (Units=GPa)

-------------------------------------------------------------------------------
  Indices      1         2         3         4         5         6    
-------------------------------------------------------------------------------
       1     27.0449    3.4415   -1.1609    0.0000    0.0000    0.0000
       2      3.4415   27.0449   -1.1609    0.0000    0.0000    0.0000
       3     -1.1609   -1.1609   81.4749    0.0000    0.0000    0.0000
       4      0.0000    0.0000    0.0000    0.6354    0.0000    0.0000
       5      0.0000    0.0000    0.0000    0.0000    0.6354    0.0000
       6      0.0000    0.0000    0.0000    0.0000    0.0000    0.5677
-------------------------------------------------------------------------------


  Elastic Compliance Matrix: (Units=1/GPa)

-------------------------------------------------------------------------------
  Indices      1         2         3         4         5         6    
-------------------------------------------------------------------------------
       1    0.037602 -0.004765  0.000468  0.000000  0.000000  0.000000
       2   -0.004765  0.037602  0.000468  0.000000  0.000000  0.000000
       3    0.000468  0.000468  0.012287  0.000000  0.000000  0.000000
       4    0.000000  0.000000  0.000000  1.573718  0.000000  0.000000
       5    0.000000  0.000000  0.000000  0.000000  1.573718  0.000000
       6    0.000000  0.000000  0.000000  0.000000  0.000000  1.761353
-------------------------------------------------------------------------------

  Mechanical properties :

-------------------------------------------------------------------------------
  Convention :                    Reuss         Voigt         Hill
-------------------------------------------------------------------------------
  Bulk  Modulus (GPa)     =      12.52616      15.31156      13.91886
  Shear Modulus (GPa)     =       0.99393       9.33073       5.16233
-------------------------------------------------------------------------------
  Velocity S-wave (km/s)  =       0.65752       2.01461       1.49850
  Velocity P-wave (km/s)  =       2.45460       3.47444       3.00806
-------------------------------------------------------------------------------
  Compressibility (1/GPa) =    0.07983290
-------------------------------------------------------------------------------
  Stress axis :                     x             y             z
-------------------------------------------------------------------------------
  Youngs Moduli (GPa)     =      26.59441      26.59441      81.38647
-------------------------------------------------------------------------------
  Poissons Ratio (x)      =                     0.12672      -0.03808
  Poissons Ratio (y)      =       0.12672                    -0.03808
  Poissons Ratio (z)      =      -0.01244      -0.01244
-------------------------------------------------------------------------------


  Piezoelectric Strain Matrix: (Units=C/m**2)

-------------------------------------------------------------------------------
  Indices      1         2         3         4         5         6    
-------------------------------------------------------------------------------
       x     0.00000   0.00000   0.00000   0.00000   0.00000   0.00000
       y     0.00000   0.00000   0.00000   0.00000   0.00000   0.00000
       z     0.00000   0.00000   0.00000   0.00000   0.00000   0.00000
-------------------------------------------------------------------------------


  Piezoelectric Stress Matrix: (Units=10**-11 C/N)

-------------------------------------------------------------------------------
  Indices      1         2         3         4         5         6    
-------------------------------------------------------------------------------
       x     0.00000   0.00000   0.00000   0.00000   0.00000   0.00000
       y     0.00000   0.00000   0.00000   0.00000   0.00000   0.00000
       z     0.00000   0.00000   0.00000   0.00000   0.00000   0.00000
-------------------------------------------------------------------------------


  Static dielectric constant tensor : 

-------------------------------------------------------------------------------
              x         y         z
-------------------------------------------------------------------------------
       x     2.80429   0.00000   0.00000
       y     0.00000   2.80429   0.00000
       z     0.00000   0.00000   1.82403
--------------------------------------------------------------------------------

  High frequency dielectric constant tensor : 

-------------------------------------------------------------------------------
              x         y         z
-------------------------------------------------------------------------------
       x     1.32264   0.00000   0.00000
       y     0.00000   1.32264   0.00000
       z     0.00000   0.00000   1.34211
-------------------------------------------------------------------------------

  Static refractive indices : 

-------------------------------------------------------------------------------
    1 =    1.35057      2 =    1.67460      3 =    1.67460
-------------------------------------------------------------------------------

  High frequency refractive indices : 

-------------------------------------------------------------------------------
    1 =    1.15006      2 =    1.15006      3 =    1.15850
-------------------------------------------------------------------------------


  Time to end of optimisation =       0.0739 seconds


  Peak dynamic memory used =       0.59 MB 


  Timing analysis for GULP :

--------------------------------------------------------------------------------
  Task / Subroutine                                          Time (Seconds)
--------------------------------------------------------------------------------
  Calculation of reciprocal space energy and derivatives          0.0010
  Calculation of reciprocal space energy using symmetry           0.0066
  Calculation of real space energy and derivatives                0.0039
  Calculation of real space energy using symmetry                 0.0581
  Symmetry generation of equivalent positions                     0.0005
--------------------------------------------------------------------------------
  Total CPU time                                                  0.0740
--------------------------------------------------------------------------------


  CIF file written as perov.cif                                               


  Job Finished at 14:07.02  6th April      2017                               

