********************************************************************************
*                       GENERAL UTILITY LATTICE PROGRAM                        *
*                                 Julian Gale                                  *
*                      Nanochemistry Research Institute                        *
*                           Department of Chemistry                            *
*                    Curtin University, Western Australia                      *
********************************************************************************
* Version = 4.3.2 * Last modified =  3rd March 2015                            *
********************************************************************************
*  optimise     - perform optimisation run                                     *
*  conp         - constant pressure calculation                                *
*  property     - calculate properties for final geometry                      *
********************************************************************************

  Job Started  at 14:07.04  6th April      2017                               

  Number of CPUs =     1


  Total number of configurations input =   1

********************************************************************************
*  Input for Configuration =   1                                               *
********************************************************************************

  Formula = K2Cu2F6                                                     

  Number of irreducible atoms/shells =       6


  Total number atoms/shells =      16

  Dimensionality = 3               :  Bulk   


  Symmetry :

  Crystal family                   :  Tetragonal  
  Crystal class  (Groth - 1921)    :  Ditetragonal Dipyramidal             

  Space group (centrosymmetric)    :  P 4/M B M       

  Patterson group                  :  P 4/m m m

  Cartesian lattice vectors (Angstroms) :

        4.200000    0.000000    0.000000
        0.000000    4.200000    0.000000
        0.000000    0.000000    4.200000

  Cell parameters (Angstroms/Degrees):

  a =       4.2000    alpha =  90.0000
  b =       4.2000    beta  =  90.0000
  c =       4.2000    gamma =  90.0000

  Initial cell volume =          74.088000 Angs**3

  Temperature of configuration =  0.000     K 

  Pressure of configuration =         0.000 GPa 

  Fractional coordinates of asymmetric unit :

--------------------------------------------------------------------------------
   No.  Atomic       x           y          z         Charge      Occupancy
        Label      (Frac)      (Frac)     (Frac)        (e)         (Frac)  
--------------------------------------------------------------------------------
      1 K     c    0.000000    0.000000    0.000000     0.70000    1.000000    
      2 Cu    c    0.000000    0.500000    0.000000     2.30000    1.000000    
      3 F     c    0.000000    0.500000    0.500000     0.37800    1.000000    
      4 F     c    0.227100 *  0.727100    0.000000     0.37800    1.000000    
      5 F     s    0.000000    0.500000    0.500000    -1.37800    1.000000    
      6 F     s    0.227100 *  0.727100    0.000000    -1.37800    1.000000    
--------------------------------------------------------------------------------


  Constraints : 

--------------------------------------------------------------------------------
  Constraint no.      Unconstrained     Constrained    Coefficient    Offset
                         Variable         Variable
--------------------------------------------------------------------------------
           1              Strain 1        Strain 2       1.00000      0.0000
           2                 4 x             4 y         1.00000      0.5000
           3                 6 x             6 y         1.00000      0.5000
--------------------------------------------------------------------------------


********************************************************************************
*  General input information                                                   *
********************************************************************************

  Species output for all configurations : 

--------------------------------------------------------------------------------
  Species    Type    Atomic    Atomic    Charge       Radii (Angs)     Library
                     Number     Mass       (e)     Cova   Ionic  VDW   Symbol
--------------------------------------------------------------------------------
    K        Core       19      39.10   0.700000   1.330  0.000  2.800          
    Cu       Core       29      63.55   2.300000   1.520  0.000  1.540          
    F        Core        9      19.00   0.378000   0.710  0.000  1.300          
    F        Shell       9       0.00  -1.378000   0.710  0.000  1.300          
--------------------------------------------------------------------------------


  Lattice summation method               =    Ewald          (3-D)
                                         =    Parry          (2-D)
                                         =    Saunders et al (1-D)
  Accuracy factor for lattice sums       =   12.000


  Time limit = Infinity

  Maximum range for interatomic potentials =    100000.000000 Angstroms

  General interatomic potentials :

--------------------------------------------------------------------------------
Atom  Types   Potential         A         B         C         D     Cutoffs(Ang)
  1     2                                                            Min    Max 
--------------------------------------------------------------------------------
K    c K    c Buckingham    0.219E+04 0.192      0.00      0.00     0.000 10.000
Cu   c F    s Buckingham    0.148E+04 0.266      0.00      0.00     0.000 10.000
F    s F    s Buckingham     912.     0.271      13.8      0.00     0.000 10.000
K    c F    s Buckingham    0.352E+04 0.267      0.00      0.00     0.000 10.000
F    c F    s Spring (c-s)   24.3      0.00      0.00      0.00     0.000  0.800
--------------------------------------------------------------------------------

********************************************************************************
*  Output for configuration   1                                                *
********************************************************************************


  Components of energy : 

--------------------------------------------------------------------------------
  Interatomic potentials     =         162.45946484 eV
  Monopole - monopole (real) =         -49.02379339 eV
  Monopole - monopole (recip)=         -73.29499696 eV
  Monopole - monopole (total)=        -122.31879035 eV
--------------------------------------------------------------------------------
  Total lattice energy       =          40.14067450 eV
--------------------------------------------------------------------------------
  Total lattice energy       =            3872.9615 kJ/(mole unit cells)
--------------------------------------------------------------------------------


  Number of variables =        4

  Maximum number of calculations  =          1000
  Maximum Hessian update interval =            10
  Maximum step size               =   1.000000000
  Maximum parameter tolerance     =   0.000010000
  Maximum function  tolerance     =   0.000010000
  Maximum gradient  tolerance     =   0.001000000
  Maximum gradient  component     =   0.010000000

  Symmetry constrained optimisation

  Symmetry used for second derivatives

  Cell parameters to be optimised using strains

  Newton-Raphson optimiser to be used

  BFGS hessian update to be used

  Start of bulk optimisation :

  Cycle:      0 Energy:        40.140674  Gnorm:    203.704373  CPU:    0.005
  ** Hessian calculated **
  Cycle:      1 Energy:       -79.091708  Gnorm:     34.419203  CPU:    0.012
  ** Hessian calculated **
  Cycle:      2 Energy:       -81.420435  Gnorm:     16.211072  CPU:    0.018
  ** Hessian calculated **
  Cycle:      3 Energy:       -81.928670  Gnorm:     15.833463  CPU:    0.023
  Cycle:      4 Energy:       -82.285914  Gnorm:      6.646702  CPU:    0.027
  Cycle:      5 Energy:       -82.417485  Gnorm:      9.676108  CPU:    0.030
  Cycle:      6 Energy:       -82.466282  Gnorm:      1.127418  CPU:    0.034
  Cycle:      7 Energy:       -82.470635  Gnorm:      1.124247  CPU:    0.037
  Cycle:      8 Energy:       -82.471172  Gnorm:      0.133925  CPU:    0.040
  Cycle:      9 Energy:       -82.471194  Gnorm:      0.041372  CPU:    0.043
  Cycle:     10 Energy:       -82.471195  Gnorm:      0.006290  CPU:    0.046
  Cycle:     11 Energy:       -82.471195  Gnorm:      0.003020  CPU:    0.049


  **** Optimisation achieved ****


  Final energy =     -82.47119528 eV
  Final Gnorm  =       0.00065471

  Components of energy : 

--------------------------------------------------------------------------------
  Interatomic potentials     =          13.07092714 eV
  Monopole - monopole (real) =         -27.32091077 eV
  Monopole - monopole (recip)=         -68.22121165 eV
  Monopole - monopole (total)=         -95.54212242 eV
--------------------------------------------------------------------------------
  Total lattice energy       =         -82.47119528 eV
--------------------------------------------------------------------------------
  Total lattice energy       =           -7957.2097 kJ/(mole unit cells)
--------------------------------------------------------------------------------

  Final asymmetric unit coordinates :

--------------------------------------------------------------------------------
   No.  Atomic        x           y           z         Radius
        Label       (Frac)      (Frac)      (Frac)       (Angs) 
--------------------------------------------------------------------------------
     1  K     c     0.000000    0.000000    0.000000    0.000000
     2  Cu    c     0.000000    0.500000    0.000000    0.000000
     3  F     c     0.000000    0.500000    0.500000    0.000000
     4  F     c     0.310996    0.810996    0.000000    0.000000
     5  F     s     0.000000    0.500000    0.500000    0.000000
     6  F     s     0.318121    0.818121    0.000000    0.000000
--------------------------------------------------------------------------------

  Final Cartesian lattice vectors (Angstroms) :

        7.114555    0.000000    0.000000
        0.000000    7.114555    0.000000
        0.000000    0.000000    3.769891


  Final cell parameters and derivatives :

--------------------------------------------------------------------------------
       a            7.114555 Angstrom     dE/de1(xx)     0.000428 eV/strain
       b            7.114555 Angstrom     dE/de2(yy)     0.000000 eV/strain
       c            3.769891 Angstrom     dE/de3(zz)     0.000102 eV/strain
       alpha       90.000000 Degrees      dE/de4(yz)     0.000000 eV/strain
       beta        90.000000 Degrees      dE/de5(xz)     0.000000 eV/strain
       gamma       90.000000 Degrees      dE/de6(xy)     0.000000 eV/strain
--------------------------------------------------------------------------------

  Primitive cell volume =           190.820168 Angs**3

  Density of cell =      2.778630 g/cm**3

  Non-primitive cell volume =           190.820168 Angs**3


  Final internal derivatives :

--------------------------------------------------------------------------------
   No.  Atomic          a             b             c           Radius
        Label          (eV)          (eV)          (eV)        (eV/Angs)
--------------------------------------------------------------------------------
      1 K     c       0.000000      0.000000      0.000000      0.000000
      2 Cu    c       0.000000      0.000000      0.000000      0.000000
      3 F     c       0.000000      0.000000      0.000000      0.000000
      4 F     c      -0.002330      0.000000      0.000000      0.000000
      5 F     s       0.000000      0.000000      0.000000      0.000000
      6 F     s       0.001111      0.000000      0.000000      0.000000
--------------------------------------------------------------------------------
  Maximum abs         0.002330      0.000000      0.000000      0.000000
--------------------------------------------------------------------------------


  Born effective charge tensors : 

-------------------------------------------------------------------------------
  Atom             x           y             z
-------------------------------------------------------------------------------
   1 K     x       0.6130     -0.0010      0.0000
           y       0.0010      0.6130      0.0000
           z       0.0000      0.0000      0.7018
-------------------------------------------------------------------------------
   2 Cu    x       1.6520      0.3326      0.0000
           y       0.3326      1.6520      0.0000
           z       0.0000      0.0000      1.7345
-------------------------------------------------------------------------------
   3 F     x      -0.7508     -0.0110      0.0000
           y      -0.0110     -0.7508      0.0000
           z       0.0000      0.0000     -0.7036
-------------------------------------------------------------------------------
   4 F     x      -0.7571     -0.0315      0.0000
           y      -0.0315     -0.7571      0.0000
           z       0.0000      0.0000     -0.8664
-------------------------------------------------------------------------------




  Elastic Constant Matrix: (Units=GPa)

-------------------------------------------------------------------------------
  Indices      1         2         3         4         5         6    
-------------------------------------------------------------------------------
       1     54.7650    5.4498   -2.5305    0.0000    0.0000    0.0000
       2      5.4498   54.7650   -2.5305    0.0000    0.0000    0.0000
       3     -2.5305   -2.5305  140.1506    0.0000    0.0000    0.0000
       4      0.0000    0.0000    0.0000    0.7729    0.0000    0.0000
       5      0.0000    0.0000    0.0000    0.0000    0.7729    0.0000
       6      0.0000    0.0000    0.0000    0.0000    0.0000    2.1283
-------------------------------------------------------------------------------


  Elastic Compliance Matrix: (Units=1/GPa)

-------------------------------------------------------------------------------
  Indices      1         2         3         4         5         6    
-------------------------------------------------------------------------------
       1    0.018455 -0.001823  0.000300  0.000000  0.000000  0.000000
       2   -0.001823  0.018455  0.000300  0.000000  0.000000  0.000000
       3    0.000300  0.000300  0.007146  0.000000  0.000000  0.000000
       4    0.000000  0.000000  0.000000  1.293873  0.000000  0.000000
       5    0.000000  0.000000  0.000000  0.000000  1.293873  0.000000
       6    0.000000  0.000000  0.000000  0.000000  0.000000  0.469869
-------------------------------------------------------------------------------

  Mechanical properties :

-------------------------------------------------------------------------------
  Convention :                    Reuss         Voigt         Hill
-------------------------------------------------------------------------------
  Bulk  Modulus (GPa)     =      24.03143      27.82867      25.93005
  Shear Modulus (GPa)     =       1.60360      17.35426       9.47893
-------------------------------------------------------------------------------
  Velocity S-wave (km/s)  =       0.75968       2.49912       1.84699
  Velocity P-wave (km/s)  =       3.06890       4.28284       3.72565
-------------------------------------------------------------------------------
  Compressibility (1/GPa) =    0.04161217
-------------------------------------------------------------------------------
  Stress axis :                     x             y             z
-------------------------------------------------------------------------------
  Youngs Moduli (GPa)     =      54.18564      54.18564     139.93788
-------------------------------------------------------------------------------
  Poissons Ratio (x)      =                     0.09876      -0.04203
  Poissons Ratio (y)      =       0.09876                    -0.04203
  Poissons Ratio (z)      =      -0.01627      -0.01627
-------------------------------------------------------------------------------


  Piezoelectric Strain Matrix: (Units=C/m**2)

-------------------------------------------------------------------------------
  Indices      1         2         3         4         5         6    
-------------------------------------------------------------------------------
       x     0.00000   0.00000   0.00000   0.00000   0.00000   0.00000
       y     0.00000   0.00000   0.00000   0.00000   0.00000   0.00000
       z     0.00000   0.00000   0.00000   0.00000   0.00000   0.00000
-------------------------------------------------------------------------------


  Piezoelectric Stress Matrix: (Units=10**-11 C/N)

-------------------------------------------------------------------------------
  Indices      1         2         3         4         5         6    
-------------------------------------------------------------------------------
       x     0.00000   0.00000   0.00000   0.00000   0.00000   0.00000
       y     0.00000   0.00000   0.00000   0.00000   0.00000   0.00000
       z     0.00000   0.00000   0.00000   0.00000   0.00000   0.00000
-------------------------------------------------------------------------------


  Static dielectric constant tensor : 

-------------------------------------------------------------------------------
              x         y         z
-------------------------------------------------------------------------------
       x    20.74772   0.00000   0.00000
       y     0.00000  20.74772   0.00000
       z     0.00000   0.00000   1.55271
--------------------------------------------------------------------------------

  High frequency dielectric constant tensor : 

-------------------------------------------------------------------------------
              x         y         z
-------------------------------------------------------------------------------
       x     1.37715   0.00000   0.00000
       y     0.00000   1.37715   0.00000
       z     0.00000   0.00000   1.40764
-------------------------------------------------------------------------------

  Static refractive indices : 

-------------------------------------------------------------------------------
    1 =    1.24608      2 =    4.55497      3 =    4.55497
-------------------------------------------------------------------------------

  High frequency refractive indices : 

-------------------------------------------------------------------------------
    1 =    1.17352      2 =    1.17352      3 =    1.18644
-------------------------------------------------------------------------------


  Time to end of optimisation =       0.0582 seconds


  Peak dynamic memory used =       0.59 MB 


  Timing analysis for GULP :

--------------------------------------------------------------------------------
  Task / Subroutine                                          Time (Seconds)
--------------------------------------------------------------------------------
  Calculation of reciprocal space energy and derivatives          0.0010
  Calculation of reciprocal space energy using symmetry           0.0050
  Calculation of real space energy and derivatives                0.0039
  Calculation of real space energy using symmetry                 0.0445
  Symmetry generation of equivalent positions                     0.0005
--------------------------------------------------------------------------------
  Total CPU time                                                  0.0583
--------------------------------------------------------------------------------


  CIF file written as perov.cif                                               


  Job Finished at 14:07.04  6th April      2017                               

