********************************************************************************
*                       GENERAL UTILITY LATTICE PROGRAM                        *
*                                 Julian Gale                                  *
*                      Nanochemistry Research Institute                        *
*                           Department of Chemistry                            *
*                    Curtin University, Western Australia                      *
********************************************************************************
* Version = 4.3.2 * Last modified =  3rd March 2015                            *
********************************************************************************
*  optimise     - perform optimisation run                                     *
*  conp         - constant pressure calculation                                *
*  property     - calculate properties for final geometry                      *
********************************************************************************

  Job Started  at 16:25.39  4th April      2017                               

  Number of CPUs =     1


  Total number of configurations input =   1

********************************************************************************
*  Input for Configuration =   1                                               *
********************************************************************************

  Formula = KZnF3                                                       

  Number of irreducible atoms/shells =       4


  Total number atoms/shells =       8

  Dimensionality = 3               :  Bulk   


  Symmetry :

  Crystal family                   :  Cubic       
  Crystal class  (Groth - 1921)    :  Cubic Hexakisoctahedral              

  Space group (centrosymmetric)    :  P M 3 M         

  Patterson group                  :  P m -3 m 

  Cartesian lattice vectors (Angstroms) :

        4.200000    0.000000    0.000000
        0.000000    4.200000    0.000000
        0.000000    0.000000    4.200000

  Cell parameters (Angstroms/Degrees):

  a =       4.2000    alpha =  90.0000
  b =       4.2000    beta  =  90.0000
  c =       4.2000    gamma =  90.0000

  Initial cell volume =          74.088000 Angs**3

  Temperature of configuration =  0.000     K 

  Pressure of configuration =         0.000 GPa 

  Fractional coordinates of asymmetric unit :

--------------------------------------------------------------------------------
   No.  Atomic       x           y          z         Charge      Occupancy
        Label      (Frac)      (Frac)     (Frac)        (e)         (Frac)  
--------------------------------------------------------------------------------
      1 K     c    0.500000    0.500000    0.500000     1.10000    1.000000    
      2 Zn    c    0.000000    0.000000    0.000000     2.10000    1.000000    
      3 F     c    0.500000    0.000000    0.000000     0.37800    1.000000    
      4 F     s    0.500000    0.000000    0.000000    -1.44467    1.000000    
--------------------------------------------------------------------------------


  Constraints : 

--------------------------------------------------------------------------------
  Constraint no.      Unconstrained     Constrained    Coefficient    Offset
                         Variable         Variable
--------------------------------------------------------------------------------
           1              Strain 1        Strain 2       1.00000      0.0000
           2              Strain 1        Strain 3       1.00000      0.0000
--------------------------------------------------------------------------------


********************************************************************************
*  General input information                                                   *
********************************************************************************

  Species output for all configurations : 

--------------------------------------------------------------------------------
  Species    Type    Atomic    Atomic    Charge       Radii (Angs)     Library
                     Number     Mass       (e)     Cova   Ionic  VDW   Symbol
--------------------------------------------------------------------------------
    K        Core       19      39.10   1.100000   1.330  0.000  2.800          
    Zn       Core       30      65.39   2.100000   1.450  0.000  2.160          
    F        Core        9      19.00   0.378000   0.710  0.000  1.300          
    F        Shell       9       0.00  -1.444667   0.710  0.000  1.300          
--------------------------------------------------------------------------------


  Lattice summation method               =    Ewald          (3-D)
                                         =    Parry          (2-D)
                                         =    Saunders et al (1-D)
  Accuracy factor for lattice sums       =   12.000


  Time limit = Infinity

  Maximum range for interatomic potentials =    100000.000000 Angstroms

  General interatomic potentials :

--------------------------------------------------------------------------------
Atom  Types   Potential         A         B         C         D     Cutoffs(Ang)
  1     2                                                            Min    Max 
--------------------------------------------------------------------------------
K    c K    c Buckingham    0.219E+04 0.192      0.00      0.00     0.000 10.000
Zn   c F    s Buckingham    0.148E+04 0.266      0.00      0.00     0.000 10.000
F    s F    s Buckingham     912.     0.271      13.8      0.00     0.000 10.000
K    c F    s Buckingham    0.352E+04 0.267      0.00      0.00     0.000 10.000
F    c F    s Spring (c-s)   26.8      0.00      0.00      0.00     0.000  0.800
--------------------------------------------------------------------------------

********************************************************************************
*  Output for configuration   1                                                *
********************************************************************************


  Components of energy : 

--------------------------------------------------------------------------------
  Interatomic potentials     =           3.87670295 eV
  Monopole - monopole (real) =         -11.76937921 eV
  Monopole - monopole (recip)=         -36.09541196 eV
  Monopole - monopole (total)=         -47.86479116 eV
--------------------------------------------------------------------------------
  Total lattice energy       =         -43.98808821 eV
--------------------------------------------------------------------------------
  Total lattice energy       =           -4244.1781 kJ/(mole unit cells)
--------------------------------------------------------------------------------


  Number of variables =        1

  Maximum number of calculations  =          1000
  Maximum Hessian update interval =            10
  Maximum step size               =   1.000000000
  Maximum parameter tolerance     =   0.000010000
  Maximum function  tolerance     =   0.000010000
  Maximum gradient  tolerance     =   0.001000000
  Maximum gradient  component     =   0.010000000

  Symmetry constrained optimisation

  Symmetry used for second derivatives

  Cell parameters to be optimised using strains

  Newton-Raphson optimiser to be used

  BFGS hessian update to be used

  Start of bulk optimisation :

  Cycle:      0 Energy:       -43.988088  Gnorm:     14.105057  CPU:    0.004
  ** Hessian calculated **
  Cycle:      1 Energy:       -44.375167  Gnorm:      2.727846  CPU:    0.006
  Cycle:      2 Energy:       -44.385547  Gnorm:      0.637086  CPU:    0.007
  Cycle:      3 Energy:       -44.386179  Gnorm:      0.002047  CPU:    0.008


  **** Optimisation achieved ****


  Final energy =     -44.38617858 eV
  Final Gnorm  =       0.00001703

  Components of energy : 

--------------------------------------------------------------------------------
  Interatomic potentials     =           6.07321395 eV
  Monopole - monopole (real) =         -12.40736063 eV
  Monopole - monopole (recip)=         -38.05203191 eV
  Monopole - monopole (total)=         -50.45939254 eV
--------------------------------------------------------------------------------
  Total lattice energy       =         -44.38617858 eV
--------------------------------------------------------------------------------
  Total lattice energy       =           -4282.5877 kJ/(mole unit cells)
--------------------------------------------------------------------------------

  Final asymmetric unit coordinates :

--------------------------------------------------------------------------------
   No.  Atomic        x           y           z         Radius
        Label       (Frac)      (Frac)      (Frac)       (Angs) 
--------------------------------------------------------------------------------
     1  K     c     0.500000    0.500000    0.500000    0.000000
     2  Zn    c     0.000000    0.000000    0.000000    0.000000
     3  F     c     0.500000    0.000000    0.000000    0.000000
     4  F     s     0.500000    0.000000    0.000000    0.000000
--------------------------------------------------------------------------------

  Final Cartesian lattice vectors (Angstroms) :

        3.984038    0.000000    0.000000
        0.000000    3.984038    0.000000
        0.000000    0.000000    3.984038


  Final cell parameters and derivatives :

--------------------------------------------------------------------------------
       a            3.984038 Angstrom     dE/de1(xx)    -0.000017 eV/strain
       b            3.984038 Angstrom     dE/de2(yy)     0.000000 eV/strain
       c            3.984038 Angstrom     dE/de3(zz)     0.000000 eV/strain
       alpha       90.000000 Degrees      dE/de4(yz)     0.000000 eV/strain
       beta        90.000000 Degrees      dE/de5(xz)     0.000000 eV/strain
       gamma       90.000000 Degrees      dE/de6(xy)     0.000000 eV/strain
--------------------------------------------------------------------------------

  Primitive cell volume =            63.236864 Angs**3

  Density of cell =      4.240639 g/cm**3

  Non-primitive cell volume =            63.236864 Angs**3


  Final internal derivatives :

--------------------------------------------------------------------------------
   No.  Atomic          a             b             c           Radius
        Label          (eV)          (eV)          (eV)        (eV/Angs)
--------------------------------------------------------------------------------
      1 K     c       0.000000      0.000000      0.000000      0.000000
      2 Zn    c       0.000000      0.000000      0.000000      0.000000
      3 F     c       0.000000      0.000000      0.000000      0.000000
      4 F     s       0.000000      0.000000      0.000000      0.000000
--------------------------------------------------------------------------------
  Maximum abs         0.000000      0.000000      0.000000      0.000000
--------------------------------------------------------------------------------


  Born effective charge tensors : 

-------------------------------------------------------------------------------
  Atom             x           y             z
-------------------------------------------------------------------------------
   1 K     x       1.1103      0.0000      0.0000
           y       0.0000      1.1103      0.0000
           z       0.0000      0.0000      1.1103
-------------------------------------------------------------------------------
   2 Zn    x       1.6680      0.0000      0.0000
           y       0.0000      1.6680      0.0000
           z       0.0000      0.0000      1.6680
-------------------------------------------------------------------------------
   3 F     x      -0.9698      0.0000      0.0000
           y       0.0000     -0.9042      0.0000
           z       0.0000      0.0000     -0.9042
-------------------------------------------------------------------------------




  Elastic Constant Matrix: (Units=GPa)

-------------------------------------------------------------------------------
  Indices      1         2         3         4         5         6    
-------------------------------------------------------------------------------
       1    165.5472   54.2930   54.2930    0.0000    0.0000    0.0000
       2     54.2930  165.5472   54.2930    0.0000    0.0000    0.0000
       3     54.2930   54.2930  165.5472    0.0000    0.0000    0.0000
       4      0.0000    0.0000    0.0000   54.2929    0.0000    0.0000
       5      0.0000    0.0000    0.0000    0.0000   54.2929    0.0000
       6      0.0000    0.0000    0.0000    0.0000    0.0000   54.2929
-------------------------------------------------------------------------------


  Elastic Compliance Matrix: (Units=1/GPa)

-------------------------------------------------------------------------------
  Indices      1         2         3         4         5         6    
-------------------------------------------------------------------------------
       1    0.007208 -0.001780 -0.001780  0.000000  0.000000  0.000000
       2   -0.001780  0.007208 -0.001780  0.000000  0.000000  0.000000
       3   -0.001780 -0.001780  0.007208  0.000000  0.000000  0.000000
       4    0.000000  0.000000  0.000000  0.018419  0.000000  0.000000
       5    0.000000  0.000000  0.000000  0.000000  0.018419  0.000000
       6    0.000000  0.000000  0.000000  0.000000  0.000000  0.018419
-------------------------------------------------------------------------------

  Mechanical properties :

-------------------------------------------------------------------------------
  Convention :                    Reuss         Voigt         Hill
-------------------------------------------------------------------------------
  Bulk  Modulus (GPa)     =      91.37770      91.37770      91.37770
  Shear Modulus (GPa)     =      54.81886      54.82661      54.82273
-------------------------------------------------------------------------------
  Velocity S-wave (km/s)  =       3.59542       3.59567       3.59554
  Velocity P-wave (km/s)  =       6.22769       6.22789       6.22779
-------------------------------------------------------------------------------
  Compressibility (1/GPa) =    0.01094359
-------------------------------------------------------------------------------
  Stress axis :                     x             y             z
-------------------------------------------------------------------------------
  Youngs Moduli (GPa)     =     138.73019     138.73019     138.73019
-------------------------------------------------------------------------------
  Poissons Ratio (x)      =                     0.24697       0.24697
  Poissons Ratio (y)      =       0.24697                     0.24697
  Poissons Ratio (z)      =       0.24697       0.24697
-------------------------------------------------------------------------------


  Piezoelectric Strain Matrix: (Units=C/m**2)

-------------------------------------------------------------------------------
  Indices      1         2         3         4         5         6    
-------------------------------------------------------------------------------
       x     0.00000   0.00000   0.00000   0.00000   0.00000   0.00000
       y     0.00000   0.00000   0.00000   0.00000   0.00000   0.00000
       z     0.00000   0.00000   0.00000   0.00000   0.00000   0.00000
-------------------------------------------------------------------------------


  Piezoelectric Stress Matrix: (Units=10**-11 C/N)

-------------------------------------------------------------------------------
  Indices      1         2         3         4         5         6    
-------------------------------------------------------------------------------
       x     0.00000   0.00000   0.00000   0.00000   0.00000   0.00000
       y     0.00000   0.00000   0.00000   0.00000   0.00000   0.00000
       z     0.00000   0.00000   0.00000   0.00000   0.00000   0.00000
-------------------------------------------------------------------------------


  Static dielectric constant tensor : 

-------------------------------------------------------------------------------
              x         y         z
-------------------------------------------------------------------------------
       x     4.73805   0.00000   0.00000
       y     0.00000   4.73805   0.00000
       z     0.00000   0.00000   4.73805
--------------------------------------------------------------------------------

  High frequency dielectric constant tensor : 

-------------------------------------------------------------------------------
              x         y         z
-------------------------------------------------------------------------------
       x     1.64289   0.00000   0.00000
       y     0.00000   1.64289   0.00000
       z     0.00000   0.00000   1.64289
-------------------------------------------------------------------------------

  Static refractive indices : 

-------------------------------------------------------------------------------
    1 =    2.17671      2 =    2.17671      3 =    2.17671
-------------------------------------------------------------------------------

  High frequency refractive indices : 

-------------------------------------------------------------------------------
    1 =    1.28175      2 =    1.28175      3 =    1.28175
-------------------------------------------------------------------------------


  Time to end of optimisation =       0.0119 seconds


  Peak dynamic memory used =       0.51 MB 


  Timing analysis for GULP :

--------------------------------------------------------------------------------
  Task / Subroutine                                          Time (Seconds)
--------------------------------------------------------------------------------
  Calculation of reciprocal space energy and derivatives          0.0003
  Calculation of reciprocal space energy using symmetry           0.0007
  Calculation of real space energy and derivatives                0.0012
  Calculation of real space energy using symmetry                 0.0056
  Symmetry generation of equivalent positions                     0.0011
--------------------------------------------------------------------------------
  Total CPU time                                                  0.0120
--------------------------------------------------------------------------------


  CIF file written as perov.cif                                               


  Job Finished at 16:25.39  4th April      2017                               

