********************************************************************************
*                       GENERAL UTILITY LATTICE PROGRAM                        *
*                                 Julian Gale                                  *
*                      Nanochemistry Research Institute                        *
*                           Department of Chemistry                            *
*                    Curtin University, Western Australia                      *
********************************************************************************
* Version = 4.3.2 * Last modified =  3rd March 2015                            *
********************************************************************************
*  optimise     - perform optimisation run                                     *
*  conp         - constant pressure calculation                                *
*  property     - calculate properties for final geometry                      *
********************************************************************************

  Job Started  at 16:25.39  4th April      2017                               

  Number of CPUs =     1


  Total number of configurations input =   1

********************************************************************************
*  Input for Configuration =   1                                               *
********************************************************************************

  Formula = KZnF3                                                       

  Number of irreducible atoms/shells =       4


  Total number atoms/shells =       8

  Dimensionality = 3               :  Bulk   


  Symmetry :

  Crystal family                   :  Cubic       
  Crystal class  (Groth - 1921)    :  Cubic Hexakisoctahedral              

  Space group (centrosymmetric)    :  P M 3 M         

  Patterson group                  :  P m -3 m 

  Cartesian lattice vectors (Angstroms) :

        4.200000    0.000000    0.000000
        0.000000    4.200000    0.000000
        0.000000    0.000000    4.200000

  Cell parameters (Angstroms/Degrees):

  a =       4.2000    alpha =  90.0000
  b =       4.2000    beta  =  90.0000
  c =       4.2000    gamma =  90.0000

  Initial cell volume =          74.088000 Angs**3

  Temperature of configuration =  0.000     K 

  Pressure of configuration =         0.000 GPa 

  Fractional coordinates of asymmetric unit :

--------------------------------------------------------------------------------
   No.  Atomic       x           y          z         Charge      Occupancy
        Label      (Frac)      (Frac)     (Frac)        (e)         (Frac)  
--------------------------------------------------------------------------------
      1 K     c    0.500000    0.500000    0.500000     1.50000    1.000000    
      2 Zn    c    0.000000    0.000000    0.000000     1.70000    1.000000    
      3 F     c    0.500000    0.000000    0.000000     0.37800    1.000000    
      4 F     s    0.500000    0.000000    0.000000    -1.44467    1.000000    
--------------------------------------------------------------------------------


  Constraints : 

--------------------------------------------------------------------------------
  Constraint no.      Unconstrained     Constrained    Coefficient    Offset
                         Variable         Variable
--------------------------------------------------------------------------------
           1              Strain 1        Strain 2       1.00000      0.0000
           2              Strain 1        Strain 3       1.00000      0.0000
--------------------------------------------------------------------------------


********************************************************************************
*  General input information                                                   *
********************************************************************************

  Species output for all configurations : 

--------------------------------------------------------------------------------
  Species    Type    Atomic    Atomic    Charge       Radii (Angs)     Library
                     Number     Mass       (e)     Cova   Ionic  VDW   Symbol
--------------------------------------------------------------------------------
    K        Core       19      39.10   1.500000   1.330  0.000  2.800          
    Zn       Core       30      65.39   1.700000   1.450  0.000  2.160          
    F        Core        9      19.00   0.378000   0.710  0.000  1.300          
    F        Shell       9       0.00  -1.444667   0.710  0.000  1.300          
--------------------------------------------------------------------------------


  Lattice summation method               =    Ewald          (3-D)
                                         =    Parry          (2-D)
                                         =    Saunders et al (1-D)
  Accuracy factor for lattice sums       =   12.000


  Time limit = Infinity

  Maximum range for interatomic potentials =    100000.000000 Angstroms

  General interatomic potentials :

--------------------------------------------------------------------------------
Atom  Types   Potential         A         B         C         D     Cutoffs(Ang)
  1     2                                                            Min    Max 
--------------------------------------------------------------------------------
K    c K    c Buckingham    0.219E+04 0.192      0.00      0.00     0.000 10.000
Zn   c F    s Buckingham    0.148E+04 0.266      0.00      0.00     0.000 10.000
F    s F    s Buckingham     912.     0.271      13.8      0.00     0.000 10.000
K    c F    s Buckingham    0.352E+04 0.267      0.00      0.00     0.000 10.000
F    c F    s Spring (c-s)   26.8      0.00      0.00      0.00     0.000  0.800
--------------------------------------------------------------------------------

********************************************************************************
*  Output for configuration   1                                                *
********************************************************************************


  Components of energy : 

--------------------------------------------------------------------------------
  Interatomic potentials     =           3.87670295 eV
  Monopole - monopole (real) =         -10.17012709 eV
  Monopole - monopole (recip)=         -33.88448467 eV
  Monopole - monopole (total)=         -44.05461176 eV
--------------------------------------------------------------------------------
  Total lattice energy       =         -40.17790880 eV
--------------------------------------------------------------------------------
  Total lattice energy       =           -3876.5540 kJ/(mole unit cells)
--------------------------------------------------------------------------------


  Number of variables =        1

  Maximum number of calculations  =          1000
  Maximum Hessian update interval =            10
  Maximum step size               =   1.000000000
  Maximum parameter tolerance     =   0.000010000
  Maximum function  tolerance     =   0.000010000
  Maximum gradient  tolerance     =   0.001000000
  Maximum gradient  component     =   0.010000000

  Symmetry constrained optimisation

  Symmetry used for second derivatives

  Cell parameters to be optimised using strains

  Newton-Raphson optimiser to be used

  BFGS hessian update to be used

  Start of bulk optimisation :

  Cycle:      0 Energy:       -40.177909  Gnorm:     10.294877  CPU:    0.004
  ** Hessian calculated **
  Cycle:      1 Energy:       -40.391667  Gnorm:      1.379690  CPU:    0.005
  Cycle:      2 Energy:       -40.394678  Gnorm:      0.246753  CPU:    0.007
  Cycle:      3 Energy:       -40.394780  Gnorm:      0.000344  CPU:    0.008


  **** Optimisation achieved ****


  Final energy =     -40.39477979 eV
  Final Gnorm  =       0.00000121

  Components of energy : 

--------------------------------------------------------------------------------
  Interatomic potentials     =           5.45683116 eV
  Monopole - monopole (real) =         -10.58496925 eV
  Monopole - monopole (recip)=         -35.26664170 eV
  Monopole - monopole (total)=         -45.85161095 eV
--------------------------------------------------------------------------------
  Total lattice energy       =         -40.39477979 eV
--------------------------------------------------------------------------------
  Total lattice energy       =           -3897.4788 kJ/(mole unit cells)
--------------------------------------------------------------------------------

  Final asymmetric unit coordinates :

--------------------------------------------------------------------------------
   No.  Atomic        x           y           z         Radius
        Label       (Frac)      (Frac)      (Frac)       (Angs) 
--------------------------------------------------------------------------------
     1  K     c     0.500000    0.500000    0.500000    0.000000
     2  Zn    c     0.000000    0.000000    0.000000    0.000000
     3  F     c     0.500000    0.000000    0.000000    0.000000
     4  F     s     0.500000    0.000000    0.000000    0.000000
--------------------------------------------------------------------------------

  Final Cartesian lattice vectors (Angstroms) :

        4.035395    0.000000    0.000000
        0.000000    4.035395    0.000000
        0.000000    0.000000    4.035395


  Final cell parameters and derivatives :

--------------------------------------------------------------------------------
       a            4.035395 Angstrom     dE/de1(xx)    -0.000001 eV/strain
       b            4.035395 Angstrom     dE/de2(yy)     0.000000 eV/strain
       c            4.035395 Angstrom     dE/de3(zz)     0.000000 eV/strain
       alpha       90.000000 Degrees      dE/de4(yz)     0.000000 eV/strain
       beta        90.000000 Degrees      dE/de5(xz)     0.000000 eV/strain
       gamma       90.000000 Degrees      dE/de6(xy)     0.000000 eV/strain
--------------------------------------------------------------------------------

  Primitive cell volume =            65.714046 Angs**3

  Density of cell =      4.080782 g/cm**3

  Non-primitive cell volume =            65.714046 Angs**3


  Final internal derivatives :

--------------------------------------------------------------------------------
   No.  Atomic          a             b             c           Radius
        Label          (eV)          (eV)          (eV)        (eV/Angs)
--------------------------------------------------------------------------------
      1 K     c       0.000000      0.000000      0.000000      0.000000
      2 Zn    c       0.000000      0.000000      0.000000      0.000000
      3 F     c       0.000000      0.000000      0.000000      0.000000
      4 F     s       0.000000      0.000000      0.000000      0.000000
--------------------------------------------------------------------------------
  Maximum abs         0.000000      0.000000      0.000000      0.000000
--------------------------------------------------------------------------------


  Born effective charge tensors : 

-------------------------------------------------------------------------------
  Atom             x           y             z
-------------------------------------------------------------------------------
   1 K     x       1.6262      0.0000      0.0000
           y       0.0000      1.6262      0.0000
           z       0.0000      0.0000      1.6262
-------------------------------------------------------------------------------
   2 Zn    x       1.2251      0.0000      0.0000
           y       0.0000      1.2251      0.0000
           z       0.0000      0.0000      1.2251
-------------------------------------------------------------------------------
   3 F     x      -0.8450      0.0000      0.0000
           y       0.0000     -1.0031      0.0000
           z       0.0000      0.0000     -1.0031
-------------------------------------------------------------------------------




  Elastic Constant Matrix: (Units=GPa)

-------------------------------------------------------------------------------
  Indices      1         2         3         4         5         6    
-------------------------------------------------------------------------------
       1    163.0537   39.9528   39.9528    0.0000    0.0000    0.0000
       2     39.9528  163.0537   39.9528    0.0000    0.0000    0.0000
       3     39.9528   39.9528  163.0537    0.0000    0.0000    0.0000
       4      0.0000    0.0000    0.0000   39.9528    0.0000    0.0000
       5      0.0000    0.0000    0.0000    0.0000   39.9528    0.0000
       6      0.0000    0.0000    0.0000    0.0000    0.0000   39.9528
-------------------------------------------------------------------------------


  Elastic Compliance Matrix: (Units=1/GPa)

-------------------------------------------------------------------------------
  Indices      1         2         3         4         5         6    
-------------------------------------------------------------------------------
       1    0.006788 -0.001336 -0.001336  0.000000  0.000000  0.000000
       2   -0.001336  0.006788 -0.001336  0.000000  0.000000  0.000000
       3   -0.001336 -0.001336  0.006788  0.000000  0.000000  0.000000
       4    0.000000  0.000000  0.000000  0.025030  0.000000  0.000000
       5    0.000000  0.000000  0.000000  0.000000  0.025030  0.000000
       6    0.000000  0.000000  0.000000  0.000000  0.000000  0.025030
-------------------------------------------------------------------------------

  Mechanical properties :

-------------------------------------------------------------------------------
  Convention :                    Reuss         Voigt         Hill
-------------------------------------------------------------------------------
  Bulk  Modulus (GPa)     =      80.98644      80.98644      80.98644
  Shear Modulus (GPa)     =      46.47607      48.59186      47.53397
-------------------------------------------------------------------------------
  Velocity S-wave (km/s)  =       3.37476       3.45072       3.41295
  Velocity P-wave (km/s)  =       5.91871       5.97683       5.94784
-------------------------------------------------------------------------------
  Compressibility (1/GPa) =    0.01234775
-------------------------------------------------------------------------------
  Stress axis :                     x             y             z
-------------------------------------------------------------------------------
  Youngs Moduli (GPa)     =     147.32780     147.32780     147.32780
-------------------------------------------------------------------------------
  Poissons Ratio (x)      =                     0.19681       0.19681
  Poissons Ratio (y)      =       0.19681                     0.19681
  Poissons Ratio (z)      =       0.19681       0.19681
-------------------------------------------------------------------------------


  Piezoelectric Strain Matrix: (Units=C/m**2)

-------------------------------------------------------------------------------
  Indices      1         2         3         4         5         6    
-------------------------------------------------------------------------------
       x     0.00000   0.00000   0.00000   0.00000   0.00000   0.00000
       y     0.00000   0.00000   0.00000   0.00000   0.00000   0.00000
       z     0.00000   0.00000   0.00000   0.00000   0.00000   0.00000
-------------------------------------------------------------------------------


  Piezoelectric Stress Matrix: (Units=10**-11 C/N)

-------------------------------------------------------------------------------
  Indices      1         2         3         4         5         6    
-------------------------------------------------------------------------------
       x     0.00000   0.00000   0.00000   0.00000   0.00000   0.00000
       y     0.00000   0.00000   0.00000   0.00000   0.00000   0.00000
       z     0.00000   0.00000   0.00000   0.00000   0.00000   0.00000
-------------------------------------------------------------------------------


  Static dielectric constant tensor : 

-------------------------------------------------------------------------------
              x         y         z
-------------------------------------------------------------------------------
       x    19.52269   0.00000   0.00000
       y     0.00000  19.52269   0.00000
       z     0.00000   0.00000  19.52269
--------------------------------------------------------------------------------

  High frequency dielectric constant tensor : 

-------------------------------------------------------------------------------
              x         y         z
-------------------------------------------------------------------------------
       x     1.62734   0.00000   0.00000
       y     0.00000   1.62734   0.00000
       z     0.00000   0.00000   1.62734
-------------------------------------------------------------------------------

  Static refractive indices : 

-------------------------------------------------------------------------------
    1 =    4.41845      2 =    4.41845      3 =    4.41845
-------------------------------------------------------------------------------

  High frequency refractive indices : 

-------------------------------------------------------------------------------
    1 =    1.27567      2 =    1.27567      3 =    1.27567
-------------------------------------------------------------------------------


  Time to end of optimisation =       0.0115 seconds


  Peak dynamic memory used =       0.51 MB 


  Timing analysis for GULP :

--------------------------------------------------------------------------------
  Task / Subroutine                                          Time (Seconds)
--------------------------------------------------------------------------------
  Calculation of reciprocal space energy and derivatives          0.0003
  Calculation of reciprocal space energy using symmetry           0.0006
  Calculation of real space energy and derivatives                0.0013
  Calculation of real space energy using symmetry                 0.0054
  Symmetry generation of equivalent positions                     0.0011
--------------------------------------------------------------------------------
  Total CPU time                                                  0.0115
--------------------------------------------------------------------------------


  CIF file written as perov.cif                                               


  Job Finished at 16:25.39  4th April      2017                               

