********************************************************************************
*                       GENERAL UTILITY LATTICE PROGRAM                        *
*                                 Julian Gale                                  *
*                      Nanochemistry Research Institute                        *
*                           Department of Chemistry                            *
*                    Curtin University, Western Australia                      *
********************************************************************************
* Version = 4.3.2 * Last modified =  3rd March 2015                            *
********************************************************************************
*  optimise     - perform optimisation run                                     *
*  conp         - constant pressure calculation                                *
*  property     - calculate properties for final geometry                      *
********************************************************************************

  Job Started  at 16:25.39  4th April      2017                               

  Number of CPUs =     1


  Total number of configurations input =   1

********************************************************************************
*  Input for Configuration =   1                                               *
********************************************************************************

  Formula = KZnF3                                                       

  Number of irreducible atoms/shells =       4


  Total number atoms/shells =       8

  Dimensionality = 3               :  Bulk   


  Symmetry :

  Crystal family                   :  Cubic       
  Crystal class  (Groth - 1921)    :  Cubic Hexakisoctahedral              

  Space group (centrosymmetric)    :  P M 3 M         

  Patterson group                  :  P m -3 m 

  Cartesian lattice vectors (Angstroms) :

        4.200000    0.000000    0.000000
        0.000000    4.200000    0.000000
        0.000000    0.000000    4.200000

  Cell parameters (Angstroms/Degrees):

  a =       4.2000    alpha =  90.0000
  b =       4.2000    beta  =  90.0000
  c =       4.2000    gamma =  90.0000

  Initial cell volume =          74.088000 Angs**3

  Temperature of configuration =  0.000     K 

  Pressure of configuration =         0.000 GPa 

  Fractional coordinates of asymmetric unit :

--------------------------------------------------------------------------------
   No.  Atomic       x           y          z         Charge      Occupancy
        Label      (Frac)      (Frac)     (Frac)        (e)         (Frac)  
--------------------------------------------------------------------------------
      1 K     c    0.500000    0.500000    0.500000     1.30000    1.000000    
      2 Zn    c    0.000000    0.000000    0.000000     2.30000    1.000000    
      3 F     c    0.500000    0.000000    0.000000     0.37800    1.000000    
      4 F     s    0.500000    0.000000    0.000000    -1.57800    1.000000    
--------------------------------------------------------------------------------


  Constraints : 

--------------------------------------------------------------------------------
  Constraint no.      Unconstrained     Constrained    Coefficient    Offset
                         Variable         Variable
--------------------------------------------------------------------------------
           1              Strain 1        Strain 2       1.00000      0.0000
           2              Strain 1        Strain 3       1.00000      0.0000
--------------------------------------------------------------------------------


********************************************************************************
*  General input information                                                   *
********************************************************************************

  Species output for all configurations : 

--------------------------------------------------------------------------------
  Species    Type    Atomic    Atomic    Charge       Radii (Angs)     Library
                     Number     Mass       (e)     Cova   Ionic  VDW   Symbol
--------------------------------------------------------------------------------
    K        Core       19      39.10   1.300000   1.330  0.000  2.800          
    Zn       Core       30      65.39   2.300000   1.450  0.000  2.160          
    F        Core        9      19.00   0.378000   0.710  0.000  1.300          
    F        Shell       9       0.00  -1.578000   0.710  0.000  1.300          
--------------------------------------------------------------------------------


  Lattice summation method               =    Ewald          (3-D)
                                         =    Parry          (2-D)
                                         =    Saunders et al (1-D)
  Accuracy factor for lattice sums       =   12.000


  Time limit = Infinity

  Maximum range for interatomic potentials =    100000.000000 Angstroms

  General interatomic potentials :

--------------------------------------------------------------------------------
Atom  Types   Potential         A         B         C         D     Cutoffs(Ang)
  1     2                                                            Min    Max 
--------------------------------------------------------------------------------
K    c K    c Buckingham    0.219E+04 0.192      0.00      0.00     0.000 10.000
Zn   c F    s Buckingham    0.148E+04 0.266      0.00      0.00     0.000 10.000
F    s F    s Buckingham     912.     0.271      13.8      0.00     0.000 10.000
K    c F    s Buckingham    0.352E+04 0.267      0.00      0.00     0.000 10.000
F    c F    s Spring (c-s)   31.9      0.00      0.00      0.00     0.000  0.800
--------------------------------------------------------------------------------

********************************************************************************
*  Output for configuration   1                                                *
********************************************************************************


  Components of energy : 

--------------------------------------------------------------------------------
  Interatomic potentials     =           3.87670295 eV
  Monopole - monopole (real) =         -14.60840586 eV
  Monopole - monopole (recip)=         -45.13170750 eV
  Monopole - monopole (total)=         -59.74011336 eV
--------------------------------------------------------------------------------
  Total lattice energy       =         -55.86341040 eV
--------------------------------------------------------------------------------
  Total lattice energy       =           -5389.9652 kJ/(mole unit cells)
--------------------------------------------------------------------------------


  Number of variables =        1

  Maximum number of calculations  =          1000
  Maximum Hessian update interval =            10
  Maximum step size               =   1.000000000
  Maximum parameter tolerance     =   0.000010000
  Maximum function  tolerance     =   0.000010000
  Maximum gradient  tolerance     =   0.001000000
  Maximum gradient  component     =   0.010000000

  Symmetry constrained optimisation

  Symmetry used for second derivatives

  Cell parameters to be optimised using strains

  Newton-Raphson optimiser to be used

  BFGS hessian update to be used

  Start of bulk optimisation :

  Cycle:      0 Energy:       -55.863410  Gnorm:     25.980379  CPU:    0.004
  ** Hessian calculated **
  Cycle:      1 Energy:       -57.063067  Gnorm:      7.997024  CPU:    0.005
  Cycle:      2 Energy:       -57.124075  Gnorm:      2.981030  CPU:    0.007
  Cycle:      3 Energy:       -57.135466  Gnorm:      0.004273  CPU:    0.008


  **** Optimisation achieved ****


  Final energy =     -57.13546624 eV
  Final Gnorm  =       0.00013393

  Components of energy : 

--------------------------------------------------------------------------------
  Interatomic potentials     =           8.09329308 eV
  Monopole - monopole (real) =         -15.95055878 eV
  Monopole - monopole (recip)=         -49.27820053 eV
  Monopole - monopole (total)=         -65.22875932 eV
--------------------------------------------------------------------------------
  Total lattice energy       =         -57.13546624 eV
--------------------------------------------------------------------------------
  Total lattice energy       =           -5512.6991 kJ/(mole unit cells)
--------------------------------------------------------------------------------

  Final asymmetric unit coordinates :

--------------------------------------------------------------------------------
   No.  Atomic        x           y           z         Radius
        Label       (Frac)      (Frac)      (Frac)       (Angs) 
--------------------------------------------------------------------------------
     1  K     c     0.500000    0.500000    0.500000    0.000000
     2  Zn    c     0.000000    0.000000    0.000000    0.000000
     3  F     c     0.500000    0.000000    0.000000    0.000000
     4  F     s     0.500000    0.000000    0.000000    0.000000
--------------------------------------------------------------------------------

  Final Cartesian lattice vectors (Angstroms) :

        3.846593    0.000000    0.000000
        0.000000    3.846593    0.000000
        0.000000    0.000000    3.846593


  Final cell parameters and derivatives :

--------------------------------------------------------------------------------
       a            3.846593 Angstrom     dE/de1(xx)    -0.000134 eV/strain
       b            3.846593 Angstrom     dE/de2(yy)     0.000000 eV/strain
       c            3.846593 Angstrom     dE/de3(zz)     0.000000 eV/strain
       alpha       90.000000 Degrees      dE/de4(yz)     0.000000 eV/strain
       beta        90.000000 Degrees      dE/de5(xz)     0.000000 eV/strain
       gamma       90.000000 Degrees      dE/de6(xy)     0.000000 eV/strain
--------------------------------------------------------------------------------

  Primitive cell volume =            56.915249 Angs**3

  Density of cell =      4.711650 g/cm**3

  Non-primitive cell volume =            56.915249 Angs**3


  Final internal derivatives :

--------------------------------------------------------------------------------
   No.  Atomic          a             b             c           Radius
        Label          (eV)          (eV)          (eV)        (eV/Angs)
--------------------------------------------------------------------------------
      1 K     c       0.000000      0.000000      0.000000      0.000000
      2 Zn    c       0.000000      0.000000      0.000000      0.000000
      3 F     c       0.000000      0.000000      0.000000      0.000000
      4 F     s       0.000000      0.000000      0.000000      0.000000
--------------------------------------------------------------------------------
  Maximum abs         0.000000      0.000000      0.000000      0.000000
--------------------------------------------------------------------------------


  Born effective charge tensors : 

-------------------------------------------------------------------------------
  Atom             x           y             z
-------------------------------------------------------------------------------
   1 K     x       1.3137      0.0000      0.0000
           y       0.0000      1.3137      0.0000
           z       0.0000      0.0000      1.3137
-------------------------------------------------------------------------------
   2 Zn    x       1.8225      0.0000      0.0000
           y       0.0000      1.8225      0.0000
           z       0.0000      0.0000      1.8225
-------------------------------------------------------------------------------
   3 F     x      -1.1097      0.0000      0.0000
           y       0.0000     -1.0132      0.0000
           z       0.0000      0.0000     -1.0132
-------------------------------------------------------------------------------




  Elastic Constant Matrix: (Units=GPa)

-------------------------------------------------------------------------------
  Indices      1         2         3         4         5         6    
-------------------------------------------------------------------------------
       1    220.4187   79.5345   79.5345    0.0000    0.0000    0.0000
       2     79.5345  220.4187   79.5345    0.0000    0.0000    0.0000
       3     79.5345   79.5345  220.4187    0.0000    0.0000    0.0000
       4      0.0000    0.0000    0.0000   79.5343    0.0000    0.0000
       5      0.0000    0.0000    0.0000    0.0000   79.5343    0.0000
       6      0.0000    0.0000    0.0000    0.0000    0.0000   79.5343
-------------------------------------------------------------------------------


  Elastic Compliance Matrix: (Units=1/GPa)

-------------------------------------------------------------------------------
  Indices      1         2         3         4         5         6    
-------------------------------------------------------------------------------
       1    0.005610 -0.001488 -0.001488  0.000000  0.000000  0.000000
       2   -0.001488  0.005610 -0.001488  0.000000  0.000000  0.000000
       3   -0.001488 -0.001488  0.005610  0.000000  0.000000  0.000000
       4    0.000000  0.000000  0.000000  0.012573  0.000000  0.000000
       5    0.000000  0.000000  0.000000  0.000000  0.012573  0.000000
       6    0.000000  0.000000  0.000000  0.000000  0.000000  0.012573
-------------------------------------------------------------------------------

  Mechanical properties :

-------------------------------------------------------------------------------
  Convention :                    Reuss         Voigt         Hill
-------------------------------------------------------------------------------
  Bulk  Modulus (GPa)     =     126.49588     126.49588     126.49588
  Shear Modulus (GPa)     =      75.62963      75.89745      75.76354
-------------------------------------------------------------------------------
  Velocity S-wave (km/s)  =       4.00645       4.01354       4.00999
  Velocity P-wave (km/s)  =       6.94620       6.95165       6.94892
-------------------------------------------------------------------------------
  Compressibility (1/GPa) =    0.00790540
-------------------------------------------------------------------------------
  Stress axis :                     x             y             z
-------------------------------------------------------------------------------
  Youngs Moduli (GPa)     =     178.24058     178.24058     178.24058
-------------------------------------------------------------------------------
  Poissons Ratio (x)      =                     0.26516       0.26516
  Poissons Ratio (y)      =       0.26516                     0.26516
  Poissons Ratio (z)      =       0.26516       0.26516
-------------------------------------------------------------------------------


  Piezoelectric Strain Matrix: (Units=C/m**2)

-------------------------------------------------------------------------------
  Indices      1         2         3         4         5         6    
-------------------------------------------------------------------------------
       x     0.00000   0.00000   0.00000   0.00000   0.00000   0.00000
       y     0.00000   0.00000   0.00000   0.00000   0.00000   0.00000
       z     0.00000   0.00000   0.00000   0.00000   0.00000   0.00000
-------------------------------------------------------------------------------


  Piezoelectric Stress Matrix: (Units=10**-11 C/N)

-------------------------------------------------------------------------------
  Indices      1         2         3         4         5         6    
-------------------------------------------------------------------------------
       x     0.00000   0.00000   0.00000   0.00000   0.00000   0.00000
       y     0.00000   0.00000   0.00000   0.00000   0.00000   0.00000
       z     0.00000   0.00000   0.00000   0.00000   0.00000   0.00000
-------------------------------------------------------------------------------


  Static dielectric constant tensor : 

-------------------------------------------------------------------------------
              x         y         z
-------------------------------------------------------------------------------
       x     5.18797   0.00000   0.00000
       y     0.00000   5.18797   0.00000
       z     0.00000   0.00000   5.18797
--------------------------------------------------------------------------------

  High frequency dielectric constant tensor : 

-------------------------------------------------------------------------------
              x         y         z
-------------------------------------------------------------------------------
       x     1.71470   0.00000   0.00000
       y     0.00000   1.71470   0.00000
       z     0.00000   0.00000   1.71470
-------------------------------------------------------------------------------

  Static refractive indices : 

-------------------------------------------------------------------------------
    1 =    2.27771      2 =    2.27771      3 =    2.27771
-------------------------------------------------------------------------------

  High frequency refractive indices : 

-------------------------------------------------------------------------------
    1 =    1.30947      2 =    1.30947      3 =    1.30947
-------------------------------------------------------------------------------


  Time to end of optimisation =       0.0121 seconds


  Peak dynamic memory used =       0.51 MB 


  Timing analysis for GULP :

--------------------------------------------------------------------------------
  Task / Subroutine                                          Time (Seconds)
--------------------------------------------------------------------------------
  Calculation of reciprocal space energy and derivatives          0.0003
  Calculation of reciprocal space energy using symmetry           0.0007
  Calculation of real space energy and derivatives                0.0013
  Calculation of real space energy using symmetry                 0.0059
  Symmetry generation of equivalent positions                     0.0011
--------------------------------------------------------------------------------
  Total CPU time                                                  0.0122
--------------------------------------------------------------------------------


  CIF file written as perov.cif                                               


  Job Finished at 16:25.39  4th April      2017                               

