********************************************************************************
*                       GENERAL UTILITY LATTICE PROGRAM                        *
*                                 Julian Gale                                  *
*                      Nanochemistry Research Institute                        *
*                           Department of Chemistry                            *
*                    Curtin University, Western Australia                      *
********************************************************************************
* Version = 4.3.2 * Last modified =  3rd March 2015                            *
********************************************************************************
*  optimise     - perform optimisation run                                     *
*  conp         - constant pressure calculation                                *
*  property     - calculate properties for final geometry                      *
********************************************************************************

  Job Started  at 16:25.38  4th April      2017                               

  Number of CPUs =     1


  Total number of configurations input =   1

********************************************************************************
*  Input for Configuration =   1                                               *
********************************************************************************

  Formula = KZnF3                                                       

  Number of irreducible atoms/shells =       4


  Total number atoms/shells =       8

  Dimensionality = 3               :  Bulk   


  Symmetry :

  Crystal family                   :  Cubic       
  Crystal class  (Groth - 1921)    :  Cubic Hexakisoctahedral              

  Space group (centrosymmetric)    :  P M 3 M         

  Patterson group                  :  P m -3 m 

  Cartesian lattice vectors (Angstroms) :

        4.200000    0.000000    0.000000
        0.000000    4.200000    0.000000
        0.000000    0.000000    4.200000

  Cell parameters (Angstroms/Degrees):

  a =       4.2000    alpha =  90.0000
  b =       4.2000    beta  =  90.0000
  c =       4.2000    gamma =  90.0000

  Initial cell volume =          74.088000 Angs**3

  Temperature of configuration =  0.000     K 

  Pressure of configuration =         0.000 GPa 

  Fractional coordinates of asymmetric unit :

--------------------------------------------------------------------------------
   No.  Atomic       x           y          z         Charge      Occupancy
        Label      (Frac)      (Frac)     (Frac)        (e)         (Frac)  
--------------------------------------------------------------------------------
      1 K     c    0.500000    0.500000    0.500000     0.80000    1.000000    
      2 Zn    c    0.000000    0.000000    0.000000     2.30000    1.000000    
      3 F     c    0.500000    0.000000    0.000000     0.37800    1.000000    
      4 F     s    0.500000    0.000000    0.000000    -1.41133    1.000000    
--------------------------------------------------------------------------------


  Constraints : 

--------------------------------------------------------------------------------
  Constraint no.      Unconstrained     Constrained    Coefficient    Offset
                         Variable         Variable
--------------------------------------------------------------------------------
           1              Strain 1        Strain 2       1.00000      0.0000
           2              Strain 1        Strain 3       1.00000      0.0000
--------------------------------------------------------------------------------


********************************************************************************
*  General input information                                                   *
********************************************************************************

  Species output for all configurations : 

--------------------------------------------------------------------------------
  Species    Type    Atomic    Atomic    Charge       Radii (Angs)     Library
                     Number     Mass       (e)     Cova   Ionic  VDW   Symbol
--------------------------------------------------------------------------------
    K        Core       19      39.10   0.800000   1.330  0.000  2.800          
    Zn       Core       30      65.39   2.300000   1.450  0.000  2.160          
    F        Core        9      19.00   0.378000   0.710  0.000  1.300          
    F        Shell       9       0.00  -1.411333   0.710  0.000  1.300          
--------------------------------------------------------------------------------


  Lattice summation method               =    Ewald          (3-D)
                                         =    Parry          (2-D)
                                         =    Saunders et al (1-D)
  Accuracy factor for lattice sums       =   12.000


  Time limit = Infinity

  Maximum range for interatomic potentials =    100000.000000 Angstroms

  General interatomic potentials :

--------------------------------------------------------------------------------
Atom  Types   Potential         A         B         C         D     Cutoffs(Ang)
  1     2                                                            Min    Max 
--------------------------------------------------------------------------------
K    c K    c Buckingham    0.219E+04 0.192      0.00      0.00     0.000 10.000
Zn   c F    s Buckingham    0.148E+04 0.266      0.00      0.00     0.000 10.000
F    s F    s Buckingham     912.     0.271      13.8      0.00     0.000 10.000
K    c F    s Buckingham    0.352E+04 0.267      0.00      0.00     0.000 10.000
F    c F    s Spring (c-s)   25.5      0.00      0.00      0.00     0.000  0.800
--------------------------------------------------------------------------------

********************************************************************************
*  Output for configuration   1                                                *
********************************************************************************


  Components of energy : 

--------------------------------------------------------------------------------
  Interatomic potentials     =           3.87670295 eV
  Monopole - monopole (real) =         -12.11777096 eV
  Monopole - monopole (recip)=         -36.46397593 eV
  Monopole - monopole (total)=         -48.58174689 eV
--------------------------------------------------------------------------------
  Total lattice energy       =         -44.70504393 eV
--------------------------------------------------------------------------------
  Total lattice energy       =           -4313.3534 kJ/(mole unit cells)
--------------------------------------------------------------------------------


  Number of variables =        1

  Maximum number of calculations  =          1000
  Maximum Hessian update interval =            10
  Maximum step size               =   1.000000000
  Maximum parameter tolerance     =   0.000010000
  Maximum function  tolerance     =   0.000010000
  Maximum gradient  tolerance     =   0.001000000
  Maximum gradient  component     =   0.010000000

  Symmetry constrained optimisation

  Symmetry used for second derivatives

  Cell parameters to be optimised using strains

  Newton-Raphson optimiser to be used

  BFGS hessian update to be used

  Start of bulk optimisation :

  Cycle:      0 Energy:       -44.705044  Gnorm:     14.822012  CPU:    0.004
  ** Hessian calculated **
  Cycle:      1 Energy:       -45.129901  Gnorm:      2.987409  CPU:    0.006
  Cycle:      2 Energy:       -45.142064  Gnorm:      0.726859  CPU:    0.007
  Cycle:      3 Energy:       -45.142875  Gnorm:      0.002612  CPU:    0.008


  **** Optimisation achieved ****


  Final energy =     -45.14287520 eV
  Final Gnorm  =       0.00002443

  Components of energy : 

--------------------------------------------------------------------------------
  Interatomic potentials     =           6.19099056 eV
  Monopole - monopole (real) =         -12.80423343 eV
  Monopole - monopole (recip)=         -38.52963233 eV
  Monopole - monopole (total)=         -51.33386577 eV
--------------------------------------------------------------------------------
  Total lattice energy       =         -45.14287520 eV
--------------------------------------------------------------------------------
  Total lattice energy       =           -4355.5974 kJ/(mole unit cells)
--------------------------------------------------------------------------------

  Final asymmetric unit coordinates :

--------------------------------------------------------------------------------
   No.  Atomic        x           y           z         Radius
        Label       (Frac)      (Frac)      (Frac)       (Angs) 
--------------------------------------------------------------------------------
     1  K     c     0.500000    0.500000    0.500000    0.000000
     2  Zn    c     0.000000    0.000000    0.000000    0.000000
     3  F     c     0.500000    0.000000    0.000000    0.000000
     4  F     s     0.500000    0.000000    0.000000    0.000000
--------------------------------------------------------------------------------

  Final Cartesian lattice vectors (Angstroms) :

        3.974829    0.000000    0.000000
        0.000000    3.974829    0.000000
        0.000000    0.000000    3.974829


  Final cell parameters and derivatives :

--------------------------------------------------------------------------------
       a            3.974829 Angstrom     dE/de1(xx)    -0.000024 eV/strain
       b            3.974829 Angstrom     dE/de2(yy)     0.000000 eV/strain
       c            3.974829 Angstrom     dE/de3(zz)     0.000000 eV/strain
       alpha       90.000000 Degrees      dE/de4(yz)     0.000000 eV/strain
       beta        90.000000 Degrees      dE/de5(xz)     0.000000 eV/strain
       gamma       90.000000 Degrees      dE/de6(xy)     0.000000 eV/strain
--------------------------------------------------------------------------------

  Primitive cell volume =            62.799378 Angs**3

  Density of cell =      4.270181 g/cm**3

  Non-primitive cell volume =            62.799378 Angs**3


  Final internal derivatives :

--------------------------------------------------------------------------------
   No.  Atomic          a             b             c           Radius
        Label          (eV)          (eV)          (eV)        (eV/Angs)
--------------------------------------------------------------------------------
      1 K     c       0.000000      0.000000      0.000000      0.000000
      2 Zn    c       0.000000      0.000000      0.000000      0.000000
      3 F     c       0.000000      0.000000      0.000000      0.000000
      4 F     s       0.000000      0.000000      0.000000      0.000000
--------------------------------------------------------------------------------
  Maximum abs         0.000000      0.000000      0.000000      0.000000
--------------------------------------------------------------------------------


  Born effective charge tensors : 

-------------------------------------------------------------------------------
  Atom             x           y             z
-------------------------------------------------------------------------------
   1 K     x       0.7405      0.0000      0.0000
           y       0.0000      0.7405      0.0000
           z       0.0000      0.0000      0.7405
-------------------------------------------------------------------------------
   2 Zn    x       1.9092      0.0000      0.0000
           y       0.0000      1.9092      0.0000
           z       0.0000      0.0000      1.9092
-------------------------------------------------------------------------------
   3 F     x      -1.0129      0.0000      0.0000
           y       0.0000     -0.8184      0.0000
           z       0.0000      0.0000     -0.8184
-------------------------------------------------------------------------------




  Elastic Constant Matrix: (Units=GPa)

-------------------------------------------------------------------------------
  Indices      1         2         3         4         5         6    
-------------------------------------------------------------------------------
       1    166.9070   56.6189   56.6189    0.0000    0.0000    0.0000
       2     56.6189  166.9070   56.6189    0.0000    0.0000    0.0000
       3     56.6189   56.6189  166.9070    0.0000    0.0000    0.0000
       4      0.0000    0.0000    0.0000   56.6188    0.0000    0.0000
       5      0.0000    0.0000    0.0000    0.0000   56.6188    0.0000
       6      0.0000    0.0000    0.0000    0.0000    0.0000   56.6188
-------------------------------------------------------------------------------


  Elastic Compliance Matrix: (Units=1/GPa)

-------------------------------------------------------------------------------
  Indices      1         2         3         4         5         6    
-------------------------------------------------------------------------------
       1    0.007235 -0.001833 -0.001833  0.000000  0.000000  0.000000
       2   -0.001833  0.007235 -0.001833  0.000000  0.000000  0.000000
       3   -0.001833 -0.001833  0.007235  0.000000  0.000000  0.000000
       4    0.000000  0.000000  0.000000  0.017662  0.000000  0.000000
       5    0.000000  0.000000  0.000000  0.000000  0.017662  0.000000
       6    0.000000  0.000000  0.000000  0.000000  0.000000  0.017662
-------------------------------------------------------------------------------

  Mechanical properties :

-------------------------------------------------------------------------------
  Convention :                    Reuss         Voigt         Hill
-------------------------------------------------------------------------------
  Bulk  Modulus (GPa)     =      93.38159      93.38159      93.38159
  Shear Modulus (GPa)     =      56.01958      56.02894      56.02426
-------------------------------------------------------------------------------
  Velocity S-wave (km/s)  =       3.62199       3.62229       3.62214
  Velocity P-wave (km/s)  =       6.27376       6.27399       6.27387
-------------------------------------------------------------------------------
  Compressibility (1/GPa) =    0.01070875
-------------------------------------------------------------------------------
  Stress axis :                     x             y             z
-------------------------------------------------------------------------------
  Youngs Moduli (GPa)     =     138.22406     138.22406     138.22406
-------------------------------------------------------------------------------
  Poissons Ratio (x)      =                     0.25330       0.25330
  Poissons Ratio (y)      =       0.25330                     0.25330
  Poissons Ratio (z)      =       0.25330       0.25330
-------------------------------------------------------------------------------


  Piezoelectric Strain Matrix: (Units=C/m**2)

-------------------------------------------------------------------------------
  Indices      1         2         3         4         5         6    
-------------------------------------------------------------------------------
       x     0.00000   0.00000   0.00000   0.00000   0.00000   0.00000
       y     0.00000   0.00000   0.00000   0.00000   0.00000   0.00000
       z     0.00000   0.00000   0.00000   0.00000   0.00000   0.00000
-------------------------------------------------------------------------------


  Piezoelectric Stress Matrix: (Units=10**-11 C/N)

-------------------------------------------------------------------------------
  Indices      1         2         3         4         5         6    
-------------------------------------------------------------------------------
       x     0.00000   0.00000   0.00000   0.00000   0.00000   0.00000
       y     0.00000   0.00000   0.00000   0.00000   0.00000   0.00000
       z     0.00000   0.00000   0.00000   0.00000   0.00000   0.00000
-------------------------------------------------------------------------------


  Static dielectric constant tensor : 

-------------------------------------------------------------------------------
              x         y         z
-------------------------------------------------------------------------------
       x     3.65765   0.00000   0.00000
       y     0.00000   3.65765   0.00000
       z     0.00000   0.00000   3.65765
--------------------------------------------------------------------------------

  High frequency dielectric constant tensor : 

-------------------------------------------------------------------------------
              x         y         z
-------------------------------------------------------------------------------
       x     1.64303   0.00000   0.00000
       y     0.00000   1.64303   0.00000
       z     0.00000   0.00000   1.64303
-------------------------------------------------------------------------------

  Static refractive indices : 

-------------------------------------------------------------------------------
    1 =    1.91250      2 =    1.91250      3 =    1.91250
-------------------------------------------------------------------------------

  High frequency refractive indices : 

-------------------------------------------------------------------------------
    1 =    1.28181      2 =    1.28181      3 =    1.28181
-------------------------------------------------------------------------------


  Time to end of optimisation =       0.0123 seconds


  Peak dynamic memory used =       0.51 MB 


  Timing analysis for GULP :

--------------------------------------------------------------------------------
  Task / Subroutine                                          Time (Seconds)
--------------------------------------------------------------------------------
  Calculation of reciprocal space energy and derivatives          0.0003
  Calculation of reciprocal space energy using symmetry           0.0007
  Calculation of real space energy and derivatives                0.0012
  Calculation of real space energy using symmetry                 0.0059
  Symmetry generation of equivalent positions                     0.0011
--------------------------------------------------------------------------------
  Total CPU time                                                  0.0123
--------------------------------------------------------------------------------


  CIF file written as perov.cif                                               


  Job Finished at 16:25.38  4th April      2017                               

