********************************************************************************
*                       GENERAL UTILITY LATTICE PROGRAM                        *
*                                 Julian Gale                                  *
*                      Nanochemistry Research Institute                        *
*                           Department of Chemistry                            *
*                    Curtin University, Western Australia                      *
********************************************************************************
* Version = 4.3.2 * Last modified =  3rd March 2015                            *
********************************************************************************
*  optimise     - perform optimisation run                                     *
*  conp         - constant pressure calculation                                *
*  property     - calculate properties for final geometry                      *
********************************************************************************

  Job Started  at 16:25.38  4th April      2017                               

  Number of CPUs =     1


  Total number of configurations input =   1

********************************************************************************
*  Input for Configuration =   1                                               *
********************************************************************************

  Formula = KZnF3                                                       

  Number of irreducible atoms/shells =       4


  Total number atoms/shells =       8

  Dimensionality = 3               :  Bulk   


  Symmetry :

  Crystal family                   :  Cubic       
  Crystal class  (Groth - 1921)    :  Cubic Hexakisoctahedral              

  Space group (centrosymmetric)    :  P M 3 M         

  Patterson group                  :  P m -3 m 

  Cartesian lattice vectors (Angstroms) :

        4.200000    0.000000    0.000000
        0.000000    4.200000    0.000000
        0.000000    0.000000    4.200000

  Cell parameters (Angstroms/Degrees):

  a =       4.2000    alpha =  90.0000
  b =       4.2000    beta  =  90.0000
  c =       4.2000    gamma =  90.0000

  Initial cell volume =          74.088000 Angs**3

  Temperature of configuration =  0.000     K 

  Pressure of configuration =         0.000 GPa 

  Fractional coordinates of asymmetric unit :

--------------------------------------------------------------------------------
   No.  Atomic       x           y          z         Charge      Occupancy
        Label      (Frac)      (Frac)     (Frac)        (e)         (Frac)  
--------------------------------------------------------------------------------
      1 K     c    0.500000    0.500000    0.500000     0.50000    1.000000    
      2 Zn    c    0.000000    0.000000    0.000000     2.50000    1.000000    
      3 F     c    0.500000    0.000000    0.000000     0.37800    1.000000    
      4 F     s    0.500000    0.000000    0.000000    -1.37800    1.000000    
--------------------------------------------------------------------------------


  Constraints : 

--------------------------------------------------------------------------------
  Constraint no.      Unconstrained     Constrained    Coefficient    Offset
                         Variable         Variable
--------------------------------------------------------------------------------
           1              Strain 1        Strain 2       1.00000      0.0000
           2              Strain 1        Strain 3       1.00000      0.0000
--------------------------------------------------------------------------------


********************************************************************************
*  General input information                                                   *
********************************************************************************

  Species output for all configurations : 

--------------------------------------------------------------------------------
  Species    Type    Atomic    Atomic    Charge       Radii (Angs)     Library
                     Number     Mass       (e)     Cova   Ionic  VDW   Symbol
--------------------------------------------------------------------------------
    K        Core       19      39.10   0.500000   1.330  0.000  2.800          
    Zn       Core       30      65.39   2.500000   1.450  0.000  2.160          
    F        Core        9      19.00   0.378000   0.710  0.000  1.300          
    F        Shell       9       0.00  -1.378000   0.710  0.000  1.300          
--------------------------------------------------------------------------------


  Lattice summation method               =    Ewald          (3-D)
                                         =    Parry          (2-D)
                                         =    Saunders et al (1-D)
  Accuracy factor for lattice sums       =   12.000


  Time limit = Infinity

  Maximum range for interatomic potentials =    100000.000000 Angstroms

  General interatomic potentials :

--------------------------------------------------------------------------------
Atom  Types   Potential         A         B         C         D     Cutoffs(Ang)
  1     2                                                            Min    Max 
--------------------------------------------------------------------------------
K    c K    c Buckingham    0.219E+04 0.192      0.00      0.00     0.000 10.000
Zn   c F    s Buckingham    0.148E+04 0.266      0.00      0.00     0.000 10.000
F    s F    s Buckingham     912.     0.271      13.8      0.00     0.000 10.000
K    c F    s Buckingham    0.352E+04 0.267      0.00      0.00     0.000 10.000
F    c F    s Spring (c-s)   24.3      0.00      0.00      0.00     0.000  0.800
--------------------------------------------------------------------------------

********************************************************************************
*  Output for configuration   1                                                *
********************************************************************************


  Components of energy : 

--------------------------------------------------------------------------------
  Interatomic potentials     =           3.87670295 eV
  Monopole - monopole (real) =         -12.45662300 eV
  Monopole - monopole (recip)=         -37.71581406 eV
  Monopole - monopole (total)=         -50.17243706 eV
--------------------------------------------------------------------------------
  Total lattice energy       =         -46.29573411 eV
--------------------------------------------------------------------------------
  Total lattice energy       =           -4466.8306 kJ/(mole unit cells)
--------------------------------------------------------------------------------


  Number of variables =        1

  Maximum number of calculations  =          1000
  Maximum Hessian update interval =            10
  Maximum step size               =   1.000000000
  Maximum parameter tolerance     =   0.000010000
  Maximum function  tolerance     =   0.000010000
  Maximum gradient  tolerance     =   0.001000000
  Maximum gradient  component     =   0.010000000

  Symmetry constrained optimisation

  Symmetry used for second derivatives

  Cell parameters to be optimised using strains

  Newton-Raphson optimiser to be used

  BFGS hessian update to be used

  Start of bulk optimisation :

  Cycle:      0 Energy:       -46.295734  Gnorm:     16.412703  CPU:    0.004
  ** Hessian calculated **
  Cycle:      1 Energy:       -46.810773  Gnorm:      3.597899  CPU:    0.005
  Cycle:      2 Energy:       -46.826599  Gnorm:      0.946321  CPU:    0.007
  Cycle:      3 Energy:       -46.827933  Gnorm:      0.000191  CPU:    0.008


  **** Optimisation achieved ****


  Final energy =     -46.82793328 eV
  Final Gnorm  =       0.00000224

  Components of energy : 

--------------------------------------------------------------------------------
  Interatomic potentials     =           6.45427409 eV
  Monopole - monopole (real) =         -13.22870502 eV
  Monopole - monopole (recip)=         -40.05350235 eV
  Monopole - monopole (total)=         -53.28220737 eV
--------------------------------------------------------------------------------
  Total lattice energy       =         -46.82793328 eV
--------------------------------------------------------------------------------
  Total lattice energy       =           -4518.1797 kJ/(mole unit cells)
--------------------------------------------------------------------------------

  Final asymmetric unit coordinates :

--------------------------------------------------------------------------------
   No.  Atomic        x           y           z         Radius
        Label       (Frac)      (Frac)      (Frac)       (Angs) 
--------------------------------------------------------------------------------
     1  K     c     0.500000    0.500000    0.500000    0.000000
     2  Zn    c     0.000000    0.000000    0.000000    0.000000
     3  F     c     0.500000    0.000000    0.000000    0.000000
     4  F     s     0.500000    0.000000    0.000000    0.000000
--------------------------------------------------------------------------------

  Final Cartesian lattice vectors (Angstroms) :

        3.954871    0.000000    0.000000
        0.000000    3.954871    0.000000
        0.000000    0.000000    3.954871


  Final cell parameters and derivatives :

--------------------------------------------------------------------------------
       a            3.954871 Angstrom     dE/de1(xx)    -0.000002 eV/strain
       b            3.954871 Angstrom     dE/de2(yy)     0.000000 eV/strain
       c            3.954871 Angstrom     dE/de3(zz)     0.000000 eV/strain
       alpha       90.000000 Degrees      dE/de4(yz)     0.000000 eV/strain
       beta        90.000000 Degrees      dE/de5(xz)     0.000000 eV/strain
       gamma       90.000000 Degrees      dE/de6(xy)     0.000000 eV/strain
--------------------------------------------------------------------------------

  Primitive cell volume =            61.858137 Angs**3

  Density of cell =      4.335157 g/cm**3

  Non-primitive cell volume =            61.858137 Angs**3


  Final internal derivatives :

--------------------------------------------------------------------------------
   No.  Atomic          a             b             c           Radius
        Label          (eV)          (eV)          (eV)        (eV/Angs)
--------------------------------------------------------------------------------
      1 K     c       0.000000      0.000000      0.000000      0.000000
      2 Zn    c       0.000000      0.000000      0.000000      0.000000
      3 F     c       0.000000      0.000000      0.000000      0.000000
      4 F     s       0.000000      0.000000      0.000000      0.000000
--------------------------------------------------------------------------------
  Maximum abs         0.000000      0.000000      0.000000      0.000000
--------------------------------------------------------------------------------


  Born effective charge tensors : 

-------------------------------------------------------------------------------
  Atom             x           y             z
-------------------------------------------------------------------------------
   1 K     x       0.3744      0.0000      0.0000
           y       0.0000      0.3744      0.0000
           z       0.0000      0.0000      0.3744
-------------------------------------------------------------------------------
   2 Zn    x       2.1447      0.0000      0.0000
           y       0.0000      2.1447      0.0000
           z       0.0000      0.0000      2.1447
-------------------------------------------------------------------------------
   3 F     x      -1.0493      0.0000      0.0000
           y       0.0000     -0.7349      0.0000
           z       0.0000      0.0000     -0.7349
-------------------------------------------------------------------------------




  Elastic Constant Matrix: (Units=GPa)

-------------------------------------------------------------------------------
  Indices      1         2         3         4         5         6    
-------------------------------------------------------------------------------
       1    178.7917   57.4266   57.4266    0.0000    0.0000    0.0000
       2     57.4266  178.7917   57.4266    0.0000    0.0000    0.0000
       3     57.4266   57.4266  178.7917    0.0000    0.0000    0.0000
       4      0.0000    0.0000    0.0000   57.4266    0.0000    0.0000
       5      0.0000    0.0000    0.0000    0.0000   57.4266    0.0000
       6      0.0000    0.0000    0.0000    0.0000    0.0000   57.4266
-------------------------------------------------------------------------------


  Elastic Compliance Matrix: (Units=1/GPa)

-------------------------------------------------------------------------------
  Indices      1         2         3         4         5         6    
-------------------------------------------------------------------------------
       1    0.006628 -0.001611 -0.001611  0.000000  0.000000  0.000000
       2   -0.001611  0.006628 -0.001611  0.000000  0.000000  0.000000
       3   -0.001611 -0.001611  0.006628  0.000000  0.000000  0.000000
       4    0.000000  0.000000  0.000000  0.017414  0.000000  0.000000
       5    0.000000  0.000000  0.000000  0.000000  0.017414  0.000000
       6    0.000000  0.000000  0.000000  0.000000  0.000000  0.017414
-------------------------------------------------------------------------------

  Mechanical properties :

-------------------------------------------------------------------------------
  Convention :                    Reuss         Voigt         Hill
-------------------------------------------------------------------------------
  Bulk  Modulus (GPa)     =      97.88163      97.88163      97.88163
  Shear Modulus (GPa)     =      58.68613      58.72898      58.70756
-------------------------------------------------------------------------------
  Velocity S-wave (km/s)  =       3.67930       3.68064       3.67997
  Velocity P-wave (km/s)  =       6.37403       6.37506       6.37455
-------------------------------------------------------------------------------
  Compressibility (1/GPa) =    0.01021642
-------------------------------------------------------------------------------
  Stress axis :                     x             y             z
-------------------------------------------------------------------------------
  Youngs Moduli (GPa)     =     150.86989     150.86989     150.86989
-------------------------------------------------------------------------------
  Poissons Ratio (x)      =                     0.24311       0.24311
  Poissons Ratio (y)      =       0.24311                     0.24311
  Poissons Ratio (z)      =       0.24311       0.24311
-------------------------------------------------------------------------------


  Piezoelectric Strain Matrix: (Units=C/m**2)

-------------------------------------------------------------------------------
  Indices      1         2         3         4         5         6    
-------------------------------------------------------------------------------
       x     0.00000   0.00000   0.00000   0.00000   0.00000   0.00000
       y     0.00000   0.00000   0.00000   0.00000   0.00000   0.00000
       z     0.00000   0.00000   0.00000   0.00000   0.00000   0.00000
-------------------------------------------------------------------------------


  Piezoelectric Stress Matrix: (Units=10**-11 C/N)

-------------------------------------------------------------------------------
  Indices      1         2         3         4         5         6    
-------------------------------------------------------------------------------
       x     0.00000   0.00000   0.00000   0.00000   0.00000   0.00000
       y     0.00000   0.00000   0.00000   0.00000   0.00000   0.00000
       z     0.00000   0.00000   0.00000   0.00000   0.00000   0.00000
-------------------------------------------------------------------------------


  Static dielectric constant tensor : 

-------------------------------------------------------------------------------
              x         y         z
-------------------------------------------------------------------------------
       x     3.39416   0.00000   0.00000
       y     0.00000   3.39416   0.00000
       z     0.00000   0.00000   3.39416
--------------------------------------------------------------------------------

  High frequency dielectric constant tensor : 

-------------------------------------------------------------------------------
              x         y         z
-------------------------------------------------------------------------------
       x     1.64820   0.00000   0.00000
       y     0.00000   1.64820   0.00000
       z     0.00000   0.00000   1.64820
-------------------------------------------------------------------------------

  Static refractive indices : 

-------------------------------------------------------------------------------
    1 =    1.84232      2 =    1.84232      3 =    1.84232
-------------------------------------------------------------------------------

  High frequency refractive indices : 

-------------------------------------------------------------------------------
    1 =    1.28382      2 =    1.28382      3 =    1.28382
-------------------------------------------------------------------------------


  Time to end of optimisation =       0.0119 seconds


  Peak dynamic memory used =       0.51 MB 


  Timing analysis for GULP :

--------------------------------------------------------------------------------
  Task / Subroutine                                          Time (Seconds)
--------------------------------------------------------------------------------
  Calculation of reciprocal space energy and derivatives          0.0003
  Calculation of reciprocal space energy using symmetry           0.0007
  Calculation of real space energy and derivatives                0.0012
  Calculation of real space energy using symmetry                 0.0058
  Symmetry generation of equivalent positions                     0.0011
--------------------------------------------------------------------------------
  Total CPU time                                                  0.0119
--------------------------------------------------------------------------------


  CIF file written as perov.cif                                               


  Job Finished at 16:25.38  4th April      2017                               

