********************************************************************************
*                       GENERAL UTILITY LATTICE PROGRAM                        *
*                                 Julian Gale                                  *
*                      Nanochemistry Research Institute                        *
*                           Department of Chemistry                            *
*                    Curtin University, Western Australia                      *
********************************************************************************
* Version = 4.3.2 * Last modified =  3rd March 2015                            *
********************************************************************************
*  optimise     - perform optimisation run                                     *
*  conp         - constant pressure calculation                                *
*  property     - calculate properties for final geometry                      *
********************************************************************************

  Job Started  at 16:25.39  4th April      2017                               

  Number of CPUs =     1


  Total number of configurations input =   1

********************************************************************************
*  Input for Configuration =   1                                               *
********************************************************************************

  Formula = KZnF3                                                       

  Number of irreducible atoms/shells =       4


  Total number atoms/shells =       8

  Dimensionality = 3               :  Bulk   


  Symmetry :

  Crystal family                   :  Cubic       
  Crystal class  (Groth - 1921)    :  Cubic Hexakisoctahedral              

  Space group (centrosymmetric)    :  P M 3 M         

  Patterson group                  :  P m -3 m 

  Cartesian lattice vectors (Angstroms) :

        4.200000    0.000000    0.000000
        0.000000    4.200000    0.000000
        0.000000    0.000000    4.200000

  Cell parameters (Angstroms/Degrees):

  a =       4.2000    alpha =  90.0000
  b =       4.2000    beta  =  90.0000
  c =       4.2000    gamma =  90.0000

  Initial cell volume =          74.088000 Angs**3

  Temperature of configuration =  0.000     K 

  Pressure of configuration =         0.000 GPa 

  Fractional coordinates of asymmetric unit :

--------------------------------------------------------------------------------
   No.  Atomic       x           y          z         Charge      Occupancy
        Label      (Frac)      (Frac)     (Frac)        (e)         (Frac)  
--------------------------------------------------------------------------------
      1 K     c    0.500000    0.500000    0.500000     1.20000    1.000000    
      2 Zn    c    0.000000    0.000000    0.000000     2.50000    1.000000    
      3 F     c    0.500000    0.000000    0.000000     0.37800    1.000000    
      4 F     s    0.500000    0.000000    0.000000    -1.61133    1.000000    
--------------------------------------------------------------------------------


  Constraints : 

--------------------------------------------------------------------------------
  Constraint no.      Unconstrained     Constrained    Coefficient    Offset
                         Variable         Variable
--------------------------------------------------------------------------------
           1              Strain 1        Strain 2       1.00000      0.0000
           2              Strain 1        Strain 3       1.00000      0.0000
--------------------------------------------------------------------------------


********************************************************************************
*  General input information                                                   *
********************************************************************************

  Species output for all configurations : 

--------------------------------------------------------------------------------
  Species    Type    Atomic    Atomic    Charge       Radii (Angs)     Library
                     Number     Mass       (e)     Cova   Ionic  VDW   Symbol
--------------------------------------------------------------------------------
    K        Core       19      39.10   1.200000   1.330  0.000  2.800          
    Zn       Core       30      65.39   2.500000   1.450  0.000  2.160          
    F        Core        9      19.00   0.378000   0.710  0.000  1.300          
    F        Shell       9       0.00  -1.611333   0.710  0.000  1.300          
--------------------------------------------------------------------------------


  Lattice summation method               =    Ewald          (3-D)
                                         =    Parry          (2-D)
                                         =    Saunders et al (1-D)
  Accuracy factor for lattice sums       =   12.000


  Time limit = Infinity

  Maximum range for interatomic potentials =    100000.000000 Angstroms

  General interatomic potentials :

--------------------------------------------------------------------------------
Atom  Types   Potential         A         B         C         D     Cutoffs(Ang)
  1     2                                                            Min    Max 
--------------------------------------------------------------------------------
K    c K    c Buckingham    0.219E+04 0.192      0.00      0.00     0.000 10.000
Zn   c F    s Buckingham    0.148E+04 0.266      0.00      0.00     0.000 10.000
F    s F    s Buckingham     912.     0.271      13.8      0.00     0.000 10.000
K    c F    s Buckingham    0.352E+04 0.267      0.00      0.00     0.000 10.000
F    c F    s Spring (c-s)   33.3      0.00      0.00      0.00     0.000  0.800
--------------------------------------------------------------------------------

********************************************************************************
*  Output for configuration   1                                                *
********************************************************************************


  Components of energy : 

--------------------------------------------------------------------------------
  Interatomic potentials     =           3.87670295 eV
  Monopole - monopole (real) =         -16.07658288 eV
  Monopole - monopole (recip)=         -48.97416902 eV
  Monopole - monopole (total)=         -65.05075190 eV
--------------------------------------------------------------------------------
  Total lattice energy       =         -61.17404894 eV
--------------------------------------------------------------------------------
  Total lattice energy       =           -5902.3606 kJ/(mole unit cells)
--------------------------------------------------------------------------------


  Number of variables =        1

  Maximum number of calculations  =          1000
  Maximum Hessian update interval =            10
  Maximum step size               =   1.000000000
  Maximum parameter tolerance     =   0.000010000
  Maximum function  tolerance     =   0.000010000
  Maximum gradient  tolerance     =   0.001000000
  Maximum gradient  component     =   0.010000000

  Symmetry constrained optimisation

  Symmetry used for second derivatives

  Cell parameters to be optimised using strains

  Newton-Raphson optimiser to be used

  BFGS hessian update to be used

  Start of bulk optimisation :

  Cycle:      0 Energy:       -61.174049  Gnorm:     31.291017  CPU:    0.004
  ** Hessian calculated **
  Cycle:      1 Energy:       -62.894515  Gnorm:      8.027436  CPU:    0.005
  Cycle:      2 Energy:       -62.974795  Gnorm:      0.021083  CPU:    0.007
  Cycle:      3 Energy:       -62.974796  Gnorm:      0.001728  CPU:    0.008


  **** Optimisation achieved ****


  Final energy =     -62.97479572 eV
  Final Gnorm  =       0.00000033

  Components of energy : 

--------------------------------------------------------------------------------
  Interatomic potentials     =           9.04206877 eV
  Monopole - monopole (real) =         -17.79818153 eV
  Monopole - monopole (recip)=         -54.21868296 eV
  Monopole - monopole (total)=         -72.01686449 eV
--------------------------------------------------------------------------------
  Total lattice energy       =         -62.97479572 eV
--------------------------------------------------------------------------------
  Total lattice energy       =           -6076.1051 kJ/(mole unit cells)
--------------------------------------------------------------------------------

  Final asymmetric unit coordinates :

--------------------------------------------------------------------------------
   No.  Atomic        x           y           z         Radius
        Label       (Frac)      (Frac)      (Frac)       (Angs) 
--------------------------------------------------------------------------------
     1  K     c     0.500000    0.500000    0.500000    0.000000
     2  Zn    c     0.000000    0.000000    0.000000    0.000000
     3  F     c     0.500000    0.000000    0.000000    0.000000
     4  F     s     0.500000    0.000000    0.000000    0.000000
--------------------------------------------------------------------------------

  Final Cartesian lattice vectors (Angstroms) :

        3.793739    0.000000    0.000000
        0.000000    3.793739    0.000000
        0.000000    0.000000    3.793739


  Final cell parameters and derivatives :

--------------------------------------------------------------------------------
       a            3.793739 Angstrom     dE/de1(xx)     0.000000 eV/strain
       b            3.793739 Angstrom     dE/de2(yy)     0.000000 eV/strain
       c            3.793739 Angstrom     dE/de3(zz)     0.000000 eV/strain
       alpha       90.000000 Degrees      dE/de4(yz)     0.000000 eV/strain
       beta        90.000000 Degrees      dE/de5(xz)     0.000000 eV/strain
       gamma       90.000000 Degrees      dE/de6(xy)     0.000000 eV/strain
--------------------------------------------------------------------------------

  Primitive cell volume =            54.601202 Angs**3

  Density of cell =      4.911334 g/cm**3

  Non-primitive cell volume =            54.601202 Angs**3


  Final internal derivatives :

--------------------------------------------------------------------------------
   No.  Atomic          a             b             c           Radius
        Label          (eV)          (eV)          (eV)        (eV/Angs)
--------------------------------------------------------------------------------
      1 K     c       0.000000      0.000000      0.000000      0.000000
      2 Zn    c       0.000000      0.000000      0.000000      0.000000
      3 F     c       0.000000      0.000000      0.000000      0.000000
      4 F     s       0.000000      0.000000      0.000000      0.000000
--------------------------------------------------------------------------------
  Maximum abs         0.000000      0.000000      0.000000      0.000000
--------------------------------------------------------------------------------


  Born effective charge tensors : 

-------------------------------------------------------------------------------
  Atom             x           y             z
-------------------------------------------------------------------------------
   1 K     x       1.1660      0.0000      0.0000
           y       0.0000      1.1660      0.0000
           z       0.0000      0.0000      1.1660
-------------------------------------------------------------------------------
   2 Zn    x       2.0456      0.0000      0.0000
           y       0.0000      2.0456      0.0000
           z       0.0000      0.0000      2.0456
-------------------------------------------------------------------------------
   3 F     x      -1.2059      0.0000      0.0000
           y       0.0000     -1.0028      0.0000
           z       0.0000      0.0000     -1.0028
-------------------------------------------------------------------------------




  Elastic Constant Matrix: (Units=GPa)

-------------------------------------------------------------------------------
  Indices      1         2         3         4         5         6    
-------------------------------------------------------------------------------
       1    241.6706   94.3821   94.3821    0.0000    0.0000    0.0000
       2     94.3821  241.6706   94.3821    0.0000    0.0000    0.0000
       3     94.3821   94.3821  241.6706    0.0000    0.0000    0.0000
       4      0.0000    0.0000    0.0000   94.3821    0.0000    0.0000
       5      0.0000    0.0000    0.0000    0.0000   94.3821    0.0000
       6      0.0000    0.0000    0.0000    0.0000    0.0000   94.3821
-------------------------------------------------------------------------------


  Elastic Compliance Matrix: (Units=1/GPa)

-------------------------------------------------------------------------------
  Indices      1         2         3         4         5         6    
-------------------------------------------------------------------------------
       1    0.005301 -0.001489 -0.001489  0.000000  0.000000  0.000000
       2   -0.001489  0.005301 -0.001489  0.000000  0.000000  0.000000
       3   -0.001489 -0.001489  0.005301  0.000000  0.000000  0.000000
       4    0.000000  0.000000  0.000000  0.010595  0.000000  0.000000
       5    0.000000  0.000000  0.000000  0.000000  0.010595  0.000000
       6    0.000000  0.000000  0.000000  0.000000  0.000000  0.010595
-------------------------------------------------------------------------------

  Mechanical properties :

-------------------------------------------------------------------------------
  Convention :                    Reuss         Voigt         Hill
-------------------------------------------------------------------------------
  Bulk  Modulus (GPa)     =     143.47824     143.47824     143.47824
  Shear Modulus (GPa)     =      84.82731      86.08694      85.45713
-------------------------------------------------------------------------------
  Velocity S-wave (km/s)  =       4.15593       4.18667       4.17133
  Velocity P-wave (km/s)  =       7.22791       7.25153       7.23973
-------------------------------------------------------------------------------
  Compressibility (1/GPa) =    0.00696970
-------------------------------------------------------------------------------
  Stress axis :                     x             y             z
-------------------------------------------------------------------------------
  Youngs Moduli (GPa)     =     188.65523     188.65523     188.65523
-------------------------------------------------------------------------------
  Poissons Ratio (x)      =                     0.28085       0.28085
  Poissons Ratio (y)      =       0.28085                     0.28085
  Poissons Ratio (z)      =       0.28085       0.28085
-------------------------------------------------------------------------------


  Piezoelectric Strain Matrix: (Units=C/m**2)

-------------------------------------------------------------------------------
  Indices      1         2         3         4         5         6    
-------------------------------------------------------------------------------
       x     0.00000   0.00000   0.00000   0.00000   0.00000   0.00000
       y     0.00000   0.00000   0.00000   0.00000   0.00000   0.00000
       z     0.00000   0.00000   0.00000   0.00000   0.00000   0.00000
-------------------------------------------------------------------------------


  Piezoelectric Stress Matrix: (Units=10**-11 C/N)

-------------------------------------------------------------------------------
  Indices      1         2         3         4         5         6    
-------------------------------------------------------------------------------
       x     0.00000   0.00000   0.00000   0.00000   0.00000   0.00000
       y     0.00000   0.00000   0.00000   0.00000   0.00000   0.00000
       z     0.00000   0.00000   0.00000   0.00000   0.00000   0.00000
-------------------------------------------------------------------------------


  Static dielectric constant tensor : 

-------------------------------------------------------------------------------
              x         y         z
-------------------------------------------------------------------------------
       x     4.57824   0.00000   0.00000
       y     0.00000   4.57824   0.00000
       z     0.00000   0.00000   4.57824
--------------------------------------------------------------------------------

  High frequency dielectric constant tensor : 

-------------------------------------------------------------------------------
              x         y         z
-------------------------------------------------------------------------------
       x     1.74419   0.00000   0.00000
       y     0.00000   1.74419   0.00000
       z     0.00000   0.00000   1.74419
-------------------------------------------------------------------------------

  Static refractive indices : 

-------------------------------------------------------------------------------
    1 =    2.13968      2 =    2.13968      3 =    2.13968
-------------------------------------------------------------------------------

  High frequency refractive indices : 

-------------------------------------------------------------------------------
    1 =    1.32068      2 =    1.32068      3 =    1.32068
-------------------------------------------------------------------------------


  Time to end of optimisation =       0.0122 seconds


  Peak dynamic memory used =       0.51 MB 


  Timing analysis for GULP :

--------------------------------------------------------------------------------
  Task / Subroutine                                          Time (Seconds)
--------------------------------------------------------------------------------
  Calculation of reciprocal space energy and derivatives          0.0003
  Calculation of reciprocal space energy using symmetry           0.0007
  Calculation of real space energy and derivatives                0.0013
  Calculation of real space energy using symmetry                 0.0060
  Symmetry generation of equivalent positions                     0.0011
--------------------------------------------------------------------------------
  Total CPU time                                                  0.0122
--------------------------------------------------------------------------------


  CIF file written as perov.cif                                               


  Job Finished at 16:25.39  4th April      2017                               

