********************************************************************************
*                       GENERAL UTILITY LATTICE PROGRAM                        *
*                                 Julian Gale                                  *
*                      Nanochemistry Research Institute                        *
*                           Department of Chemistry                            *
*                    Curtin University, Western Australia                      *
********************************************************************************
* Version = 4.3.2 * Last modified =  3rd March 2015                            *
********************************************************************************
*  optimise     - perform optimisation run                                     *
*  conp         - constant pressure calculation                                *
*  property     - calculate properties for final geometry                      *
********************************************************************************

  Job Started  at 16:25.39  4th April      2017                               

  Number of CPUs =     1


  Total number of configurations input =   1

********************************************************************************
*  Input for Configuration =   1                                               *
********************************************************************************

  Formula = KZnF3                                                       

  Number of irreducible atoms/shells =       4


  Total number atoms/shells =       8

  Dimensionality = 3               :  Bulk   


  Symmetry :

  Crystal family                   :  Cubic       
  Crystal class  (Groth - 1921)    :  Cubic Hexakisoctahedral              

  Space group (centrosymmetric)    :  P M 3 M         

  Patterson group                  :  P m -3 m 

  Cartesian lattice vectors (Angstroms) :

        4.200000    0.000000    0.000000
        0.000000    4.200000    0.000000
        0.000000    0.000000    4.200000

  Cell parameters (Angstroms/Degrees):

  a =       4.2000    alpha =  90.0000
  b =       4.2000    beta  =  90.0000
  c =       4.2000    gamma =  90.0000

  Initial cell volume =          74.088000 Angs**3

  Temperature of configuration =  0.000     K 

  Pressure of configuration =         0.000 GPa 

  Fractional coordinates of asymmetric unit :

--------------------------------------------------------------------------------
   No.  Atomic       x           y          z         Charge      Occupancy
        Label      (Frac)      (Frac)     (Frac)        (e)         (Frac)  
--------------------------------------------------------------------------------
      1 K     c    0.500000    0.500000    0.500000     1.30000    1.000000    
      2 Zn    c    0.000000    0.000000    0.000000     1.70000    1.000000    
      3 F     c    0.500000    0.000000    0.000000     0.37800    1.000000    
      4 F     s    0.500000    0.000000    0.000000    -1.37800    1.000000    
--------------------------------------------------------------------------------


  Constraints : 

--------------------------------------------------------------------------------
  Constraint no.      Unconstrained     Constrained    Coefficient    Offset
                         Variable         Variable
--------------------------------------------------------------------------------
           1              Strain 1        Strain 2       1.00000      0.0000
           2              Strain 1        Strain 3       1.00000      0.0000
--------------------------------------------------------------------------------


********************************************************************************
*  General input information                                                   *
********************************************************************************

  Species output for all configurations : 

--------------------------------------------------------------------------------
  Species    Type    Atomic    Atomic    Charge       Radii (Angs)     Library
                     Number     Mass       (e)     Cova   Ionic  VDW   Symbol
--------------------------------------------------------------------------------
    K        Core       19      39.10   1.300000   1.330  0.000  2.800          
    Zn       Core       30      65.39   1.700000   1.450  0.000  2.160          
    F        Core        9      19.00   0.378000   0.710  0.000  1.300          
    F        Shell       9       0.00  -1.378000   0.710  0.000  1.300          
--------------------------------------------------------------------------------


  Lattice summation method               =    Ewald          (3-D)
                                         =    Parry          (2-D)
                                         =    Saunders et al (1-D)
  Accuracy factor for lattice sums       =   12.000


  Time limit = Infinity

  Maximum range for interatomic potentials =    100000.000000 Angstroms

  General interatomic potentials :

--------------------------------------------------------------------------------
Atom  Types   Potential         A         B         C         D     Cutoffs(Ang)
  1     2                                                            Min    Max 
--------------------------------------------------------------------------------
K    c K    c Buckingham    0.219E+04 0.192      0.00      0.00     0.000 10.000
Zn   c F    s Buckingham    0.148E+04 0.266      0.00      0.00     0.000 10.000
F    s F    s Buckingham     912.     0.271      13.8      0.00     0.000 10.000
K    c F    s Buckingham    0.352E+04 0.267      0.00      0.00     0.000 10.000
F    c F    s Spring (c-s)   24.3      0.00      0.00      0.00     0.000  0.800
--------------------------------------------------------------------------------

********************************************************************************
*  Output for configuration   1                                                *
********************************************************************************


  Components of energy : 

--------------------------------------------------------------------------------
  Interatomic potentials     =           3.87670295 eV
  Monopole - monopole (real) =          -9.32965195 eV
  Monopole - monopole (recip)=         -30.13978345 eV
  Monopole - monopole (total)=         -39.46943540 eV
--------------------------------------------------------------------------------
  Total lattice energy       =         -35.59273245 eV
--------------------------------------------------------------------------------
  Total lattice energy       =           -3434.1546 kJ/(mole unit cells)
--------------------------------------------------------------------------------


  Number of variables =        1

  Maximum number of calculations  =          1000
  Maximum Hessian update interval =            10
  Maximum step size               =   1.000000000
  Maximum parameter tolerance     =   0.000010000
  Maximum function  tolerance     =   0.000010000
  Maximum gradient  tolerance     =   0.001000000
  Maximum gradient  component     =   0.010000000

  Symmetry constrained optimisation

  Symmetry used for second derivatives

  Cell parameters to be optimised using strains

  Newton-Raphson optimiser to be used

  BFGS hessian update to be used

  Start of bulk optimisation :

  Cycle:      0 Energy:       -35.592732  Gnorm:      5.709701  CPU:    0.004
  ** Hessian calculated **
  Cycle:      1 Energy:       -35.661123  Gnorm:      0.065622  CPU:    0.006
  Cycle:      2 Energy:       -35.661130  Gnorm:      0.006871  CPU:    0.007


  **** Optimisation achieved ****


  Final energy =     -35.66113057 eV
  Final Gnorm  =       0.00000031

  Components of energy : 

--------------------------------------------------------------------------------
  Interatomic potentials     =           4.73715495 eV
  Monopole - monopole (real) =          -9.54921041 eV
  Monopole - monopole (recip)=         -30.84907511 eV
  Monopole - monopole (total)=         -40.39828552 eV
--------------------------------------------------------------------------------
  Total lattice energy       =         -35.66113057 eV
--------------------------------------------------------------------------------
  Total lattice energy       =           -3440.7540 kJ/(mole unit cells)
--------------------------------------------------------------------------------

  Final asymmetric unit coordinates :

--------------------------------------------------------------------------------
   No.  Atomic        x           y           z         Radius
        Label       (Frac)      (Frac)      (Frac)       (Angs) 
--------------------------------------------------------------------------------
     1  K     c     0.500000    0.500000    0.500000    0.000000
     2  Zn    c     0.000000    0.000000    0.000000    0.000000
     3  F     c     0.500000    0.000000    0.000000    0.000000
     4  F     s     0.500000    0.000000    0.000000    0.000000
--------------------------------------------------------------------------------

  Final Cartesian lattice vectors (Angstroms) :

        4.103432    0.000000    0.000000
        0.000000    4.103432    0.000000
        0.000000    0.000000    4.103432


  Final cell parameters and derivatives :

--------------------------------------------------------------------------------
       a            4.103432 Angstrom     dE/de1(xx)     0.000000 eV/strain
       b            4.103432 Angstrom     dE/de2(yy)     0.000000 eV/strain
       c            4.103432 Angstrom     dE/de3(zz)     0.000000 eV/strain
       alpha       90.000000 Degrees      dE/de4(yz)     0.000000 eV/strain
       beta        90.000000 Degrees      dE/de5(xz)     0.000000 eV/strain
       gamma       90.000000 Degrees      dE/de6(xy)     0.000000 eV/strain
--------------------------------------------------------------------------------

  Primitive cell volume =            69.094235 Angs**3

  Density of cell =      3.881145 g/cm**3

  Non-primitive cell volume =            69.094235 Angs**3


  Final internal derivatives :

--------------------------------------------------------------------------------
   No.  Atomic          a             b             c           Radius
        Label          (eV)          (eV)          (eV)        (eV/Angs)
--------------------------------------------------------------------------------
      1 K     c       0.000000      0.000000      0.000000      0.000000
      2 Zn    c       0.000000      0.000000      0.000000      0.000000
      3 F     c       0.000000      0.000000      0.000000      0.000000
      4 F     s       0.000000      0.000000      0.000000      0.000000
--------------------------------------------------------------------------------
  Maximum abs         0.000000      0.000000      0.000000      0.000000
--------------------------------------------------------------------------------


  Born effective charge tensors : 

-------------------------------------------------------------------------------
  Atom             x           y             z
-------------------------------------------------------------------------------
   1 K     x       1.3896      0.0000      0.0000
           y       0.0000      1.3896      0.0000
           z       0.0000      0.0000      1.3896
-------------------------------------------------------------------------------
   2 Zn    x       1.2679      0.0000      0.0000
           y       0.0000      1.2679      0.0000
           z       0.0000      0.0000      1.2679
-------------------------------------------------------------------------------
   3 F     x      -0.8168      0.0000      0.0000
           y       0.0000     -0.9203      0.0000
           z       0.0000      0.0000     -0.9203
-------------------------------------------------------------------------------




  Elastic Constant Matrix: (Units=GPa)

-------------------------------------------------------------------------------
  Indices      1         2         3         4         5         6    
-------------------------------------------------------------------------------
       1    136.9354   35.1333   35.1333    0.0000    0.0000    0.0000
       2     35.1333  136.9354   35.1333    0.0000    0.0000    0.0000
       3     35.1333   35.1333  136.9354    0.0000    0.0000    0.0000
       4      0.0000    0.0000    0.0000   35.1333    0.0000    0.0000
       5      0.0000    0.0000    0.0000    0.0000   35.1333    0.0000
       6      0.0000    0.0000    0.0000    0.0000    0.0000   35.1333
-------------------------------------------------------------------------------


  Elastic Compliance Matrix: (Units=1/GPa)

-------------------------------------------------------------------------------
  Indices      1         2         3         4         5         6    
-------------------------------------------------------------------------------
       1    0.008157 -0.001666 -0.001666  0.000000  0.000000  0.000000
       2   -0.001666  0.008157 -0.001666  0.000000  0.000000  0.000000
       3   -0.001666 -0.001666  0.008157  0.000000  0.000000  0.000000
       4    0.000000  0.000000  0.000000  0.028463  0.000000  0.000000
       5    0.000000  0.000000  0.000000  0.000000  0.028463  0.000000
       6    0.000000  0.000000  0.000000  0.000000  0.000000  0.028463
-------------------------------------------------------------------------------

  Mechanical properties :

-------------------------------------------------------------------------------
  Convention :                    Reuss         Voigt         Hill
-------------------------------------------------------------------------------
  Bulk  Modulus (GPa)     =      69.06733      69.06733      69.06733
  Shear Modulus (GPa)     =      40.10233      41.44040      40.77137
-------------------------------------------------------------------------------
  Velocity S-wave (km/s)  =       3.21444       3.26762       3.24114
  Velocity P-wave (km/s)  =       5.61893       5.65969       5.63935
-------------------------------------------------------------------------------
  Compressibility (1/GPa) =    0.01447863
-------------------------------------------------------------------------------
  Stress axis :                     x             y             z
-------------------------------------------------------------------------------
  Youngs Moduli (GPa)     =     122.58825     122.58825     122.58825
-------------------------------------------------------------------------------
  Poissons Ratio (x)      =                     0.20418       0.20418
  Poissons Ratio (y)      =       0.20418                     0.20418
  Poissons Ratio (z)      =       0.20418       0.20418
-------------------------------------------------------------------------------


  Piezoelectric Strain Matrix: (Units=C/m**2)

-------------------------------------------------------------------------------
  Indices      1         2         3         4         5         6    
-------------------------------------------------------------------------------
       x     0.00000   0.00000   0.00000   0.00000   0.00000   0.00000
       y     0.00000   0.00000   0.00000   0.00000   0.00000   0.00000
       z     0.00000   0.00000   0.00000   0.00000   0.00000   0.00000
-------------------------------------------------------------------------------


  Piezoelectric Stress Matrix: (Units=10**-11 C/N)

-------------------------------------------------------------------------------
  Indices      1         2         3         4         5         6    
-------------------------------------------------------------------------------
       x     0.00000   0.00000   0.00000   0.00000   0.00000   0.00000
       y     0.00000   0.00000   0.00000   0.00000   0.00000   0.00000
       z     0.00000   0.00000   0.00000   0.00000   0.00000   0.00000
-------------------------------------------------------------------------------


  Static dielectric constant tensor : 

-------------------------------------------------------------------------------
              x         y         z
-------------------------------------------------------------------------------
       x    10.44883   0.00000   0.00000
       y     0.00000  10.44883   0.00000
       z     0.00000   0.00000  10.44883
--------------------------------------------------------------------------------

  High frequency dielectric constant tensor : 

-------------------------------------------------------------------------------
              x         y         z
-------------------------------------------------------------------------------
       x     1.59525   0.00000   0.00000
       y     0.00000   1.59525   0.00000
       z     0.00000   0.00000   1.59525
-------------------------------------------------------------------------------

  Static refractive indices : 

-------------------------------------------------------------------------------
    1 =    3.23247      2 =    3.23247      3 =    3.23247
-------------------------------------------------------------------------------

  High frequency refractive indices : 

-------------------------------------------------------------------------------
    1 =    1.26303      2 =    1.26303      3 =    1.26303
-------------------------------------------------------------------------------


  Time to end of optimisation =       0.0105 seconds


  Peak dynamic memory used =       0.51 MB 


  Timing analysis for GULP :

--------------------------------------------------------------------------------
  Task / Subroutine                                          Time (Seconds)
--------------------------------------------------------------------------------
  Calculation of reciprocal space energy and derivatives          0.0003
  Calculation of reciprocal space energy using symmetry           0.0005
  Calculation of real space energy and derivatives                0.0012
  Calculation of real space energy using symmetry                 0.0045
  Symmetry generation of equivalent positions                     0.0010
--------------------------------------------------------------------------------
  Total CPU time                                                  0.0105
--------------------------------------------------------------------------------


  CIF file written as perov.cif                                               


  Job Finished at 16:25.39  4th April      2017                               

