********************************************************************************
*                       GENERAL UTILITY LATTICE PROGRAM                        *
*                                 Julian Gale                                  *
*                      Nanochemistry Research Institute                        *
*                           Department of Chemistry                            *
*                    Curtin University, Western Australia                      *
********************************************************************************
* Version = 4.3.2 * Last modified =  3rd March 2015                            *
********************************************************************************
*  optimise     - perform optimisation run                                     *
*  conp         - constant pressure calculation                                *
*  property     - calculate properties for final geometry                      *
********************************************************************************

  Job Started  at 16:25.39  4th April      2017                               

  Number of CPUs =     1


  Total number of configurations input =   1

********************************************************************************
*  Input for Configuration =   1                                               *
********************************************************************************

  Formula = KZnF3                                                       

  Number of irreducible atoms/shells =       4


  Total number atoms/shells =       8

  Dimensionality = 3               :  Bulk   


  Symmetry :

  Crystal family                   :  Cubic       
  Crystal class  (Groth - 1921)    :  Cubic Hexakisoctahedral              

  Space group (centrosymmetric)    :  P M 3 M         

  Patterson group                  :  P m -3 m 

  Cartesian lattice vectors (Angstroms) :

        4.200000    0.000000    0.000000
        0.000000    4.200000    0.000000
        0.000000    0.000000    4.200000

  Cell parameters (Angstroms/Degrees):

  a =       4.2000    alpha =  90.0000
  b =       4.2000    beta  =  90.0000
  c =       4.2000    gamma =  90.0000

  Initial cell volume =          74.088000 Angs**3

  Temperature of configuration =  0.000     K 

  Pressure of configuration =         0.000 GPa 

  Fractional coordinates of asymmetric unit :

--------------------------------------------------------------------------------
   No.  Atomic       x           y          z         Charge      Occupancy
        Label      (Frac)      (Frac)     (Frac)        (e)         (Frac)  
--------------------------------------------------------------------------------
      1 K     c    0.500000    0.500000    0.500000     1.30000    1.000000    
      2 Zn    c    0.000000    0.000000    0.000000     2.10000    1.000000    
      3 F     c    0.500000    0.000000    0.000000     0.37800    1.000000    
      4 F     s    0.500000    0.000000    0.000000    -1.51133    1.000000    
--------------------------------------------------------------------------------


  Constraints : 

--------------------------------------------------------------------------------
  Constraint no.      Unconstrained     Constrained    Coefficient    Offset
                         Variable         Variable
--------------------------------------------------------------------------------
           1              Strain 1        Strain 2       1.00000      0.0000
           2              Strain 1        Strain 3       1.00000      0.0000
--------------------------------------------------------------------------------


********************************************************************************
*  General input information                                                   *
********************************************************************************

  Species output for all configurations : 

--------------------------------------------------------------------------------
  Species    Type    Atomic    Atomic    Charge       Radii (Angs)     Library
                     Number     Mass       (e)     Cova   Ionic  VDW   Symbol
--------------------------------------------------------------------------------
    K        Core       19      39.10   1.300000   1.330  0.000  2.800          
    Zn       Core       30      65.39   2.100000   1.450  0.000  2.160          
    F        Core        9      19.00   0.378000   0.710  0.000  1.300          
    F        Shell       9       0.00  -1.511333   0.710  0.000  1.300          
--------------------------------------------------------------------------------


  Lattice summation method               =    Ewald          (3-D)
                                         =    Parry          (2-D)
                                         =    Saunders et al (1-D)
  Accuracy factor for lattice sums       =   12.000


  Time limit = Infinity

  Maximum range for interatomic potentials =    100000.000000 Angstroms

  General interatomic potentials :

--------------------------------------------------------------------------------
Atom  Types   Potential         A         B         C         D     Cutoffs(Ang)
  1     2                                                            Min    Max 
--------------------------------------------------------------------------------
K    c K    c Buckingham    0.219E+04 0.192      0.00      0.00     0.000 10.000
Zn   c F    s Buckingham    0.148E+04 0.266      0.00      0.00     0.000 10.000
F    s F    s Buckingham     912.     0.271      13.8      0.00     0.000 10.000
K    c F    s Buckingham    0.352E+04 0.267      0.00      0.00     0.000 10.000
F    c F    s Spring (c-s)   29.3      0.00      0.00      0.00     0.000  0.800
--------------------------------------------------------------------------------

********************************************************************************
*  Output for configuration   1                                                *
********************************************************************************


  Components of energy : 

--------------------------------------------------------------------------------
  Interatomic potentials     =           3.87670295 eV
  Monopole - monopole (real) =         -12.71926929 eV
  Monopole - monopole (recip)=         -39.71819421 eV
  Monopole - monopole (total)=         -52.43746350 eV
--------------------------------------------------------------------------------
  Total lattice energy       =         -48.56076055 eV
--------------------------------------------------------------------------------
  Total lattice energy       =           -4685.3711 kJ/(mole unit cells)
--------------------------------------------------------------------------------


  Number of variables =        1

  Maximum number of calculations  =          1000
  Maximum Hessian update interval =            10
  Maximum step size               =   1.000000000
  Maximum parameter tolerance     =   0.000010000
  Maximum function  tolerance     =   0.000010000
  Maximum gradient  tolerance     =   0.001000000
  Maximum gradient  component     =   0.010000000

  Symmetry constrained optimisation

  Symmetry used for second derivatives

  Cell parameters to be optimised using strains

  Newton-Raphson optimiser to be used

  BFGS hessian update to be used

  Start of bulk optimisation :

  Cycle:      0 Energy:       -48.560761  Gnorm:     18.677729  CPU:    0.004
  ** Hessian calculated **
  Cycle:      1 Energy:       -49.215161  Gnorm:      4.562523  CPU:    0.005
  Cycle:      2 Energy:       -49.239237  Gnorm:      1.329441  CPU:    0.007
  Cycle:      3 Energy:       -49.241771  Gnorm:      0.000847  CPU:    0.008


  **** Optimisation achieved ****


  Final energy =     -49.24177055 eV
  Final Gnorm  =       0.00001342

  Components of energy : 

--------------------------------------------------------------------------------
  Interatomic potentials     =           6.83381805 eV
  Monopole - monopole (real) =         -13.60173556 eV
  Monopole - monopole (recip)=         -42.47385304 eV
  Monopole - monopole (total)=         -56.07558860 eV
--------------------------------------------------------------------------------
  Total lattice energy       =         -49.24177055 eV
--------------------------------------------------------------------------------
  Total lattice energy       =           -4751.0781 kJ/(mole unit cells)
--------------------------------------------------------------------------------

  Final asymmetric unit coordinates :

--------------------------------------------------------------------------------
   No.  Atomic        x           y           z         Radius
        Label       (Frac)      (Frac)      (Frac)       (Angs) 
--------------------------------------------------------------------------------
     1  K     c     0.500000    0.500000    0.500000    0.000000
     2  Zn    c     0.000000    0.000000    0.000000    0.000000
     3  F     c     0.500000    0.000000    0.000000    0.000000
     4  F     s     0.500000    0.000000    0.000000    0.000000
--------------------------------------------------------------------------------

  Final Cartesian lattice vectors (Angstroms) :

        3.927508    0.000000    0.000000
        0.000000    3.927508    0.000000
        0.000000    0.000000    3.927508


  Final cell parameters and derivatives :

--------------------------------------------------------------------------------
       a            3.927508 Angstrom     dE/de1(xx)    -0.000013 eV/strain
       b            3.927508 Angstrom     dE/de2(yy)     0.000000 eV/strain
       c            3.927508 Angstrom     dE/de3(zz)     0.000000 eV/strain
       alpha       90.000000 Degrees      dE/de4(yz)     0.000000 eV/strain
       beta        90.000000 Degrees      dE/de5(xz)     0.000000 eV/strain
       gamma       90.000000 Degrees      dE/de6(xy)     0.000000 eV/strain
--------------------------------------------------------------------------------

  Primitive cell volume =            60.583084 Angs**3

  Density of cell =      4.426396 g/cm**3

  Non-primitive cell volume =            60.583084 Angs**3


  Final internal derivatives :

--------------------------------------------------------------------------------
   No.  Atomic          a             b             c           Radius
        Label          (eV)          (eV)          (eV)        (eV/Angs)
--------------------------------------------------------------------------------
      1 K     c       0.000000      0.000000      0.000000      0.000000
      2 Zn    c       0.000000      0.000000      0.000000      0.000000
      3 F     c       0.000000      0.000000      0.000000      0.000000
      4 F     s       0.000000      0.000000      0.000000      0.000000
--------------------------------------------------------------------------------
  Maximum abs         0.000000      0.000000      0.000000      0.000000
--------------------------------------------------------------------------------


  Born effective charge tensors : 

-------------------------------------------------------------------------------
  Atom             x           y             z
-------------------------------------------------------------------------------
   1 K     x       1.3423      0.0000      0.0000
           y       0.0000      1.3423      0.0000
           z       0.0000      0.0000      1.3423
-------------------------------------------------------------------------------
   2 Zn    x       1.6293      0.0000      0.0000
           y       0.0000      1.6293      0.0000
           z       0.0000      0.0000      1.6293
-------------------------------------------------------------------------------
   3 F     x      -1.0043      0.0000      0.0000
           y       0.0000     -0.9837      0.0000
           z       0.0000      0.0000     -0.9837
-------------------------------------------------------------------------------




  Elastic Constant Matrix: (Units=GPa)

-------------------------------------------------------------------------------
  Indices      1         2         3         4         5         6    
-------------------------------------------------------------------------------
       1    189.2624   61.9945   61.9945    0.0000    0.0000    0.0000
       2     61.9945  189.2624   61.9945    0.0000    0.0000    0.0000
       3     61.9945   61.9945  189.2624    0.0000    0.0000    0.0000
       4      0.0000    0.0000    0.0000   61.9945    0.0000    0.0000
       5      0.0000    0.0000    0.0000    0.0000   61.9945    0.0000
       6      0.0000    0.0000    0.0000    0.0000    0.0000   61.9945
-------------------------------------------------------------------------------


  Elastic Compliance Matrix: (Units=1/GPa)

-------------------------------------------------------------------------------
  Indices      1         2         3         4         5         6    
-------------------------------------------------------------------------------
       1    0.006302 -0.001555 -0.001555  0.000000  0.000000  0.000000
       2   -0.001555  0.006302 -0.001555  0.000000  0.000000  0.000000
       3   -0.001555 -0.001555  0.006302  0.000000  0.000000  0.000000
       4    0.000000  0.000000  0.000000  0.016130  0.000000  0.000000
       5    0.000000  0.000000  0.000000  0.000000  0.016130  0.000000
       6    0.000000  0.000000  0.000000  0.000000  0.000000  0.016130
-------------------------------------------------------------------------------

  Mechanical properties :

-------------------------------------------------------------------------------
  Convention :                    Reuss         Voigt         Hill
-------------------------------------------------------------------------------
  Bulk  Modulus (GPa)     =     104.41712     104.41712     104.41712
  Shear Modulus (GPa)     =      62.64002      62.65027      62.64514
-------------------------------------------------------------------------------
  Velocity S-wave (km/s)  =       3.76184       3.76215       3.76200
  Velocity P-wave (km/s)  =       6.51600       6.51624       6.51612
-------------------------------------------------------------------------------
  Compressibility (1/GPa) =    0.00957697
-------------------------------------------------------------------------------
  Stress axis :                     x             y             z
-------------------------------------------------------------------------------
  Youngs Moduli (GPa)     =     158.66969     158.66969     158.66969
-------------------------------------------------------------------------------
  Poissons Ratio (x)      =                     0.24674       0.24674
  Poissons Ratio (y)      =       0.24674                     0.24674
  Poissons Ratio (z)      =       0.24674       0.24674
-------------------------------------------------------------------------------


  Piezoelectric Strain Matrix: (Units=C/m**2)

-------------------------------------------------------------------------------
  Indices      1         2         3         4         5         6    
-------------------------------------------------------------------------------
       x     0.00000   0.00000   0.00000   0.00000   0.00000   0.00000
       y     0.00000   0.00000   0.00000   0.00000   0.00000   0.00000
       z     0.00000   0.00000   0.00000   0.00000   0.00000   0.00000
-------------------------------------------------------------------------------


  Piezoelectric Stress Matrix: (Units=10**-11 C/N)

-------------------------------------------------------------------------------
  Indices      1         2         3         4         5         6    
-------------------------------------------------------------------------------
       x     0.00000   0.00000   0.00000   0.00000   0.00000   0.00000
       y     0.00000   0.00000   0.00000   0.00000   0.00000   0.00000
       z     0.00000   0.00000   0.00000   0.00000   0.00000   0.00000
-------------------------------------------------------------------------------


  Static dielectric constant tensor : 

-------------------------------------------------------------------------------
              x         y         z
-------------------------------------------------------------------------------
       x     5.84127   0.00000   0.00000
       y     0.00000   5.84127   0.00000
       z     0.00000   0.00000   5.84127
--------------------------------------------------------------------------------

  High frequency dielectric constant tensor : 

-------------------------------------------------------------------------------
              x         y         z
-------------------------------------------------------------------------------
       x     1.67272   0.00000   0.00000
       y     0.00000   1.67272   0.00000
       z     0.00000   0.00000   1.67272
-------------------------------------------------------------------------------

  Static refractive indices : 

-------------------------------------------------------------------------------
    1 =    2.41687      2 =    2.41687      3 =    2.41687
-------------------------------------------------------------------------------

  High frequency refractive indices : 

-------------------------------------------------------------------------------
    1 =    1.29334      2 =    1.29334      3 =    1.29334
-------------------------------------------------------------------------------


  Time to end of optimisation =       0.0119 seconds


  Peak dynamic memory used =       0.51 MB 


  Timing analysis for GULP :

--------------------------------------------------------------------------------
  Task / Subroutine                                          Time (Seconds)
--------------------------------------------------------------------------------
  Calculation of reciprocal space energy and derivatives          0.0003
  Calculation of reciprocal space energy using symmetry           0.0007
  Calculation of real space energy and derivatives                0.0012
  Calculation of real space energy using symmetry                 0.0058
  Symmetry generation of equivalent positions                     0.0011
--------------------------------------------------------------------------------
  Total CPU time                                                  0.0119
--------------------------------------------------------------------------------


  CIF file written as perov.cif                                               


  Job Finished at 16:25.39  4th April      2017                               

