********************************************************************************
*                       GENERAL UTILITY LATTICE PROGRAM                        *
*                                 Julian Gale                                  *
*                      Nanochemistry Research Institute                        *
*                           Department of Chemistry                            *
*                    Curtin University, Western Australia                      *
********************************************************************************
* Version = 4.3.2 * Last modified =  3rd March 2015                            *
********************************************************************************
*  optimise     - perform optimisation run                                     *
*  conp         - constant pressure calculation                                *
*  property     - calculate properties for final geometry                      *
********************************************************************************

  Job Started  at 14:08.07  6th April      2017                               

  Number of CPUs =     1


  Total number of configurations input =   1

********************************************************************************
*  Input for Configuration =   1                                               *
********************************************************************************

  Formula = K2Zn2F6                                                     

  Number of irreducible atoms/shells =       6


  Total number atoms/shells =      16

  Dimensionality = 3               :  Bulk   


  Symmetry :

  Crystal family                   :  Tetragonal  
  Crystal class  (Groth - 1921)    :  Ditetragonal Dipyramidal             

  Space group (centrosymmetric)    :  P 4/M B M       

  Patterson group                  :  P 4/m m m

  Cartesian lattice vectors (Angstroms) :

        4.200000    0.000000    0.000000
        0.000000    4.200000    0.000000
        0.000000    0.000000    4.200000

  Cell parameters (Angstroms/Degrees):

  a =       4.2000    alpha =  90.0000
  b =       4.2000    beta  =  90.0000
  c =       4.2000    gamma =  90.0000

  Initial cell volume =          74.088000 Angs**3

  Temperature of configuration =  0.000     K 

  Pressure of configuration =         0.000 GPa 

  Fractional coordinates of asymmetric unit :

--------------------------------------------------------------------------------
   No.  Atomic       x           y          z         Charge      Occupancy
        Label      (Frac)      (Frac)     (Frac)        (e)         (Frac)  
--------------------------------------------------------------------------------
      1 K     c    0.000000    0.000000    0.000000     1.20000    1.000000    
      2 Zn    c    0.000000    0.500000    0.000000     2.50000    1.000000    
      3 F     c    0.000000    0.500000    0.500000     0.37800    1.000000    
      4 F     c    0.227100 *  0.727100    0.000000     0.37800    1.000000    
      5 F     s    0.000000    0.500000    0.500000    -1.61133    1.000000    
      6 F     s    0.227100 *  0.727100    0.000000    -1.61133    1.000000    
--------------------------------------------------------------------------------


  Constraints : 

--------------------------------------------------------------------------------
  Constraint no.      Unconstrained     Constrained    Coefficient    Offset
                         Variable         Variable
--------------------------------------------------------------------------------
           1              Strain 1        Strain 2       1.00000      0.0000
           2                 4 x             4 y         1.00000      0.5000
           3                 6 x             6 y         1.00000      0.5000
--------------------------------------------------------------------------------


********************************************************************************
*  General input information                                                   *
********************************************************************************

  Species output for all configurations : 

--------------------------------------------------------------------------------
  Species    Type    Atomic    Atomic    Charge       Radii (Angs)     Library
                     Number     Mass       (e)     Cova   Ionic  VDW   Symbol
--------------------------------------------------------------------------------
    K        Core       19      39.10   1.200000   1.330  0.000  2.800          
    Zn       Core       30      65.39   2.500000   1.450  0.000  2.160          
    F        Core        9      19.00   0.378000   0.710  0.000  1.300          
    F        Shell       9       0.00  -1.611333   0.710  0.000  1.300          
--------------------------------------------------------------------------------


  Lattice summation method               =    Ewald          (3-D)
                                         =    Parry          (2-D)
                                         =    Saunders et al (1-D)
  Accuracy factor for lattice sums       =   12.000


  Time limit = Infinity

  Maximum range for interatomic potentials =    100000.000000 Angstroms

  General interatomic potentials :

--------------------------------------------------------------------------------
Atom  Types   Potential         A         B         C         D     Cutoffs(Ang)
  1     2                                                            Min    Max 
--------------------------------------------------------------------------------
K    c K    c Buckingham    0.219E+04 0.192      0.00      0.00     0.000 10.000
Zn   c F    s Buckingham    0.148E+04 0.266      0.00      0.00     0.000 10.000
F    s F    s Buckingham     912.     0.271      20.0      0.00     0.000 10.000
K    c F    s Buckingham    0.352E+04 0.267      0.00      0.00     0.000 10.000
F    c F    s Spring (c-s)   33.3      0.00      0.00      0.00     0.000  0.800
--------------------------------------------------------------------------------

********************************************************************************
*  Output for configuration   1                                                *
********************************************************************************


  Components of energy : 

--------------------------------------------------------------------------------
  Interatomic potentials     =         161.29294297 eV
  Monopole - monopole (real) =         -70.65863883 eV
  Monopole - monopole (recip)=        -102.06704073 eV
  Monopole - monopole (total)=        -172.72567956 eV
--------------------------------------------------------------------------------
  Total lattice energy       =         -11.43273659 eV
--------------------------------------------------------------------------------
  Total lattice energy       =           -1103.0843 kJ/(mole unit cells)
--------------------------------------------------------------------------------


  Number of variables =        4

  Maximum number of calculations  =          1000
  Maximum Hessian update interval =            10
  Maximum step size               =   1.000000000
  Maximum parameter tolerance     =   0.000010000
  Maximum function  tolerance     =   0.000010000
  Maximum gradient  tolerance     =   0.001000000
  Maximum gradient  component     =   0.010000000

  Symmetry constrained optimisation

  Symmetry used for second derivatives

  Cell parameters to be optimised using strains

  Newton-Raphson optimiser to be used

  BFGS hessian update to be used

  Start of bulk optimisation :

  Cycle:      0 Energy:       -11.432737  Gnorm:    191.854663  CPU:    0.005
  ** Hessian calculated **
  Cycle:      1 Energy:      -113.347799  Gnorm:     32.709224  CPU:    0.012
  ** Hessian calculated **
  Cycle:      2 Energy:      -119.960805  Gnorm:     11.807818  CPU:    0.017
  Cycle:      3 Energy:      -120.602913  Gnorm:     11.086818  CPU:    0.020
  Cycle:      4 Energy:      -120.761408  Gnorm:      4.990645  CPU:    0.024
  Cycle:      5 Energy:      -120.809193  Gnorm:      2.173544  CPU:    0.027
  Cycle:      6 Energy:      -120.815943  Gnorm:      0.235187  CPU:    0.031
  Cycle:      7 Energy:      -120.816376  Gnorm:      0.086636  CPU:    0.034
  Cycle:      8 Energy:      -120.816412  Gnorm:      0.050239  CPU:    0.037
  Cycle:      9 Energy:      -120.816423  Gnorm:      0.009463  CPU:    0.040
  Cycle:     10 Energy:      -120.816424  Gnorm:      0.005250  CPU:    0.043


  **** Optimisation achieved ****


  Final energy =    -120.81642370 eV
  Final Gnorm  =       0.00073639

  Components of energy : 

--------------------------------------------------------------------------------
  Interatomic potentials     =          19.32734630 eV
  Monopole - monopole (real) =         -40.36778063 eV
  Monopole - monopole (recip)=         -99.77598937 eV
  Monopole - monopole (total)=        -140.14377000 eV
--------------------------------------------------------------------------------
  Total lattice energy       =        -120.81642370 eV
--------------------------------------------------------------------------------
  Total lattice energy       =          -11656.9380 kJ/(mole unit cells)
--------------------------------------------------------------------------------

  Final asymmetric unit coordinates :

--------------------------------------------------------------------------------
   No.  Atomic        x           y           z         Radius
        Label       (Frac)      (Frac)      (Frac)       (Angs) 
--------------------------------------------------------------------------------
     1  K     c     0.000000    0.000000    0.000000    0.000000
     2  Zn    c     0.000000    0.500000    0.000000    0.000000
     3  F     c     0.000000    0.500000    0.500000    0.000000
     4  F     c     0.198145    0.698145    0.000000    0.000000
     5  F     s     0.000000    0.500000    0.500000    0.000000
     6  F     s     0.192625    0.692625    0.000000    0.000000
--------------------------------------------------------------------------------

  Final Cartesian lattice vectors (Angstroms) :

        6.514075    0.000000    0.000000
        0.000000    6.514075    0.000000
        0.000000    0.000000    3.548675


  Final cell parameters and derivatives :

--------------------------------------------------------------------------------
       a            6.514075 Angstrom     dE/de1(xx)     0.001643 eV/strain
       b            6.514075 Angstrom     dE/de2(yy)     0.000000 eV/strain
       c            3.548675 Angstrom     dE/de3(zz)    -0.000523 eV/strain
       alpha       90.000000 Degrees      dE/de4(yz)     0.000000 eV/strain
       beta        90.000000 Degrees      dE/de5(xz)     0.000000 eV/strain
       gamma       90.000000 Degrees      dE/de6(xy)     0.000000 eV/strain
--------------------------------------------------------------------------------

  Primitive cell volume =           150.581515 Angs**3

  Density of cell =      3.561722 g/cm**3

  Non-primitive cell volume =           150.581515 Angs**3


  Final internal derivatives :

--------------------------------------------------------------------------------
   No.  Atomic          a             b             c           Radius
        Label          (eV)          (eV)          (eV)        (eV/Angs)
--------------------------------------------------------------------------------
      1 K     c       0.000000      0.000000      0.000000      0.000000
      2 Zn    c       0.000000      0.000000      0.000000      0.000000
      3 F     c       0.000000      0.000000      0.000000      0.000000
      4 F     c       0.000749      0.000000      0.000000      0.000000
      5 F     s       0.000000      0.000000      0.000000      0.000000
      6 F     s      -0.002268      0.000000      0.000000      0.000000
--------------------------------------------------------------------------------
  Maximum abs         0.002268      0.000000      0.000000      0.000000
--------------------------------------------------------------------------------


  Born effective charge tensors : 

-------------------------------------------------------------------------------
  Atom             x           y             z
-------------------------------------------------------------------------------
   1 K     x       1.0377      0.0017      0.0000
           y      -0.0017      1.0377      0.0000
           z       0.0000      0.0000      1.1963
-------------------------------------------------------------------------------
   2 Zn    x       1.9082     -0.3413      0.0000
           y      -0.3413      1.9082      0.0000
           z       0.0000      0.0000      1.7747
-------------------------------------------------------------------------------
   3 F     x      -0.9797      0.0166      0.0000
           y       0.0166     -0.9797      0.0000
           z       0.0000      0.0000     -0.8762
-------------------------------------------------------------------------------
   4 F     x      -0.9831     -0.1373      0.0000
           y      -0.1373     -0.9831      0.0000
           z       0.0000      0.0000     -1.0473
-------------------------------------------------------------------------------




  Elastic Constant Matrix: (Units=GPa)

-------------------------------------------------------------------------------
  Indices      1         2         3         4         5         6    
-------------------------------------------------------------------------------
       1    141.2863   22.8962   -6.1367    0.0000    0.0000    0.0000
       2     22.8962  141.2863   -6.1367    0.0000    0.0000    0.0000
       3     -6.1367   -6.1367  228.0552    0.0000    0.0000    0.0000
       4      0.0000    0.0000    0.0000    1.6941    0.0000    0.0000
       5      0.0000    0.0000    0.0000    0.0000    1.6941    0.0000
       6      0.0000    0.0000    0.0000    0.0000    0.0000   19.5120
-------------------------------------------------------------------------------


  Elastic Compliance Matrix: (Units=1/GPa)

-------------------------------------------------------------------------------
  Indices      1         2         3         4         5         6    
-------------------------------------------------------------------------------
       1    0.007275 -0.001172  0.000164  0.000000  0.000000  0.000000
       2   -0.001172  0.007275  0.000164  0.000000  0.000000  0.000000
       3    0.000164  0.000164  0.004394  0.000000  0.000000  0.000000
       4    0.000000  0.000000  0.000000  0.590300  0.000000  0.000000
       5    0.000000  0.000000  0.000000  0.000000  0.590300  0.000000
       6    0.000000  0.000000  0.000000  0.000000  0.000000  0.051250
-------------------------------------------------------------------------------

  Mechanical properties :

-------------------------------------------------------------------------------
  Convention :                    Reuss         Voigt         Hill
-------------------------------------------------------------------------------
  Bulk  Modulus (GPa)     =      57.94828      59.09705      58.52266
  Shear Modulus (GPa)     =       3.97383      37.91369      20.94376
-------------------------------------------------------------------------------
  Velocity S-wave (km/s)  =       1.05627       3.26263       2.42492
  Velocity P-wave (km/s)  =       4.21395       5.54845       4.92659
-------------------------------------------------------------------------------
  Compressibility (1/GPa) =    0.01725677
-------------------------------------------------------------------------------
  Stress axis :                     x             y             z
-------------------------------------------------------------------------------
  Youngs Moduli (GPa)     =     137.45975     137.45975     227.59645
-------------------------------------------------------------------------------
  Poissons Ratio (x)      =                     0.16107      -0.03738
  Poissons Ratio (y)      =       0.16107                    -0.03738
  Poissons Ratio (z)      =      -0.02257      -0.02257
-------------------------------------------------------------------------------


  Piezoelectric Strain Matrix: (Units=C/m**2)

-------------------------------------------------------------------------------
  Indices      1         2         3         4         5         6    
-------------------------------------------------------------------------------
       x     0.00000   0.00000   0.00000   0.00000   0.00000   0.00000
       y     0.00000   0.00000   0.00000   0.00000   0.00000   0.00000
       z     0.00000   0.00000   0.00000   0.00000   0.00000   0.00000
-------------------------------------------------------------------------------


  Piezoelectric Stress Matrix: (Units=10**-11 C/N)

-------------------------------------------------------------------------------
  Indices      1         2         3         4         5         6    
-------------------------------------------------------------------------------
       x     0.00000   0.00000   0.00000   0.00000   0.00000   0.00000
       y     0.00000   0.00000   0.00000   0.00000   0.00000   0.00000
       z     0.00000   0.00000   0.00000   0.00000   0.00000   0.00000
-------------------------------------------------------------------------------


  Static dielectric constant tensor : 

-------------------------------------------------------------------------------
              x         y         z
-------------------------------------------------------------------------------
       x    80.79347   0.00000   0.00000
       y     0.00000  80.79347   0.00000
       z     0.00000   0.00000   1.00307
--------------------------------------------------------------------------------

  High frequency dielectric constant tensor : 

-------------------------------------------------------------------------------
              x         y         z
-------------------------------------------------------------------------------
       x     1.49416   0.00000   0.00000
       y     0.00000   1.49416   0.00000
       z     0.00000   0.00000   1.50772
-------------------------------------------------------------------------------

  Static refractive indices : 

-------------------------------------------------------------------------------
    1 =    1.00153      2 =    8.98852      3 =    8.98852
-------------------------------------------------------------------------------

  High frequency refractive indices : 

-------------------------------------------------------------------------------
    1 =    1.22236      2 =    1.22236      3 =    1.22789
-------------------------------------------------------------------------------


  Time to end of optimisation =       0.0520 seconds


  Peak dynamic memory used =       0.59 MB 


  Timing analysis for GULP :

--------------------------------------------------------------------------------
  Task / Subroutine                                          Time (Seconds)
--------------------------------------------------------------------------------
  Calculation of reciprocal space energy and derivatives          0.0009
  Calculation of reciprocal space energy using symmetry           0.0042
  Calculation of real space energy and derivatives                0.0039
  Calculation of real space energy using symmetry                 0.0388
  Symmetry generation of equivalent positions                     0.0005
--------------------------------------------------------------------------------
  Total CPU time                                                  0.0521
--------------------------------------------------------------------------------


  CIF file written as perov.cif                                               


  Job Finished at 14:08.07  6th April      2017                               

