********************************************************************************
*                       GENERAL UTILITY LATTICE PROGRAM                        *
*                                 Julian Gale                                  *
*                      Nanochemistry Research Institute                        *
*                           Department of Chemistry                            *
*                    Curtin University, Western Australia                      *
********************************************************************************
* Version = 4.3.2 * Last modified =  3rd March 2015                            *
********************************************************************************
*  optimise     - perform optimisation run                                     *
*  conp         - constant pressure calculation                                *
*  property     - calculate properties for final geometry                      *
********************************************************************************

  Job Started  at 14:08.05  6th April      2017                               

  Number of CPUs =     1


  Total number of configurations input =   1

********************************************************************************
*  Input for Configuration =   1                                               *
********************************************************************************

  Formula = K2Zn2F6                                                     

  Number of irreducible atoms/shells =       6


  Total number atoms/shells =      16

  Dimensionality = 3               :  Bulk   


  Symmetry :

  Crystal family                   :  Tetragonal  
  Crystal class  (Groth - 1921)    :  Ditetragonal Dipyramidal             

  Space group (centrosymmetric)    :  P 4/M B M       

  Patterson group                  :  P 4/m m m

  Cartesian lattice vectors (Angstroms) :

        4.200000    0.000000    0.000000
        0.000000    4.200000    0.000000
        0.000000    0.000000    4.200000

  Cell parameters (Angstroms/Degrees):

  a =       4.2000    alpha =  90.0000
  b =       4.2000    beta  =  90.0000
  c =       4.2000    gamma =  90.0000

  Initial cell volume =          74.088000 Angs**3

  Temperature of configuration =  0.000     K 

  Pressure of configuration =         0.000 GPa 

  Fractional coordinates of asymmetric unit :

--------------------------------------------------------------------------------
   No.  Atomic       x           y          z         Charge      Occupancy
        Label      (Frac)      (Frac)     (Frac)        (e)         (Frac)  
--------------------------------------------------------------------------------
      1 K     c    0.000000    0.000000    0.000000     0.90000    1.000000    
      2 Zn    c    0.000000    0.500000    0.000000     1.90000    1.000000    
      3 F     c    0.000000    0.500000    0.500000     0.37800    1.000000    
      4 F     c    0.227100 *  0.727100    0.000000     0.37800    1.000000    
      5 F     s    0.000000    0.500000    0.500000    -1.31133    1.000000    
      6 F     s    0.227100 *  0.727100    0.000000    -1.31133    1.000000    
--------------------------------------------------------------------------------


  Constraints : 

--------------------------------------------------------------------------------
  Constraint no.      Unconstrained     Constrained    Coefficient    Offset
                         Variable         Variable
--------------------------------------------------------------------------------
           1              Strain 1        Strain 2       1.00000      0.0000
           2                 4 x             4 y         1.00000      0.5000
           3                 6 x             6 y         1.00000      0.5000
--------------------------------------------------------------------------------


********************************************************************************
*  General input information                                                   *
********************************************************************************

  Species output for all configurations : 

--------------------------------------------------------------------------------
  Species    Type    Atomic    Atomic    Charge       Radii (Angs)     Library
                     Number     Mass       (e)     Cova   Ionic  VDW   Symbol
--------------------------------------------------------------------------------
    K        Core       19      39.10   0.900000   1.330  0.000  2.800          
    Zn       Core       30      65.39   1.900000   1.450  0.000  2.160          
    F        Core        9      19.00   0.378000   0.710  0.000  1.300          
    F        Shell       9       0.00  -1.311333   0.710  0.000  1.300          
--------------------------------------------------------------------------------


  Lattice summation method               =    Ewald          (3-D)
                                         =    Parry          (2-D)
                                         =    Saunders et al (1-D)
  Accuracy factor for lattice sums       =   12.000


  Time limit = Infinity

  Maximum range for interatomic potentials =    100000.000000 Angstroms

  General interatomic potentials :

--------------------------------------------------------------------------------
Atom  Types   Potential         A         B         C         D     Cutoffs(Ang)
  1     2                                                            Min    Max 
--------------------------------------------------------------------------------
K    c K    c Buckingham    0.219E+04 0.192      0.00      0.00     0.000 10.000
Zn   c F    s Buckingham    0.148E+04 0.266      0.00      0.00     0.000 10.000
F    s F    s Buckingham     912.     0.271      20.0      0.00     0.000 10.000
K    c F    s Buckingham    0.352E+04 0.267      0.00      0.00     0.000 10.000
F    c F    s Spring (c-s)   22.0      0.00      0.00      0.00     0.000  0.800
--------------------------------------------------------------------------------

********************************************************************************
*  Output for configuration   1                                                *
********************************************************************************


  Components of energy : 

--------------------------------------------------------------------------------
  Interatomic potentials     =         161.29294297 eV
  Monopole - monopole (real) =         -40.52564143 eV
  Monopole - monopole (recip)=         -58.58979982 eV
  Monopole - monopole (total)=         -99.11544124 eV
--------------------------------------------------------------------------------
  Total lattice energy       =          62.17750173 eV
--------------------------------------------------------------------------------
  Total lattice energy       =            5999.1784 kJ/(mole unit cells)
--------------------------------------------------------------------------------


  Number of variables =        4

  Maximum number of calculations  =          1000
  Maximum Hessian update interval =            10
  Maximum step size               =   1.000000000
  Maximum parameter tolerance     =   0.000010000
  Maximum function  tolerance     =   0.000010000
  Maximum gradient  tolerance     =   0.001000000
  Maximum gradient  component     =   0.010000000

  Symmetry constrained optimisation

  Symmetry used for second derivatives

  Cell parameters to be optimised using strains

  Newton-Raphson optimiser to be used

  BFGS hessian update to be used

  Start of bulk optimisation :

  Cycle:      0 Energy:        62.177502  Gnorm:    208.835612  CPU:    0.005
  ** Hessian calculated **
  Cycle:      1 Energy:       -62.493494  Gnorm:     29.134139  CPU:    0.012
  ** Hessian calculated **
  Cycle:      2 Energy:       -63.175834  Gnorm:     14.521479  CPU:    0.017
  ** Hessian calculated **
  Cycle:      3 Energy:       -63.410387  Gnorm:      7.746400  CPU:    0.022
  Cycle:      4 Energy:       -63.431545  Gnorm:      7.557364  CPU:    0.026
  ** Hessian calculated **
  Cycle:      5 Energy:       -63.880937  Gnorm:      3.652666  CPU:    0.032
  Cycle:      6 Energy:       -63.910640  Gnorm:      0.740804  CPU:    0.035
  Cycle:      7 Energy:       -63.911073  Gnorm:      0.058914  CPU:    0.039
  Cycle:      8 Energy:       -63.911088  Gnorm:      0.006171  CPU:    0.042


  **** Optimisation achieved ****


  Final energy =     -63.91108771 eV
  Final Gnorm  =       0.00017183

  Components of energy : 

--------------------------------------------------------------------------------
  Interatomic potentials     =           8.99852595 eV
  Monopole - monopole (real) =         -16.54057347 eV
  Monopole - monopole (recip)=         -56.36904019 eV
  Monopole - monopole (total)=         -72.90961366 eV
--------------------------------------------------------------------------------
  Total lattice energy       =         -63.91108771 eV
--------------------------------------------------------------------------------
  Total lattice energy       =           -6166.4430 kJ/(mole unit cells)
--------------------------------------------------------------------------------

  Final asymmetric unit coordinates :

--------------------------------------------------------------------------------
   No.  Atomic        x           y           z         Radius
        Label       (Frac)      (Frac)      (Frac)       (Angs) 
--------------------------------------------------------------------------------
     1  K     c     0.000000    0.000000    0.000000    0.000000
     2  Zn    c     0.000000    0.500000    0.000000    0.000000
     3  F     c     0.000000    0.500000    0.500000    0.000000
     4  F     c     0.206264    0.706264    0.000000    0.000000
     5  F     s     0.000000    0.500000    0.500000    0.000000
     6  F     s     0.202007    0.702007    0.000000    0.000000
--------------------------------------------------------------------------------

  Final Cartesian lattice vectors (Angstroms) :

        7.009450    0.000000    0.000000
        0.000000    7.009450    0.000000
        0.000000    0.000000    3.933178


  Final cell parameters and derivatives :

--------------------------------------------------------------------------------
       a            7.009450 Angstrom     dE/de1(xx)     0.000234 eV/strain
       b            7.009450 Angstrom     dE/de2(yy)     0.000000 eV/strain
       c            3.933178 Angstrom     dE/de3(zz)     0.000026 eV/strain
       alpha       90.000000 Degrees      dE/de4(yz)     0.000000 eV/strain
       beta        90.000000 Degrees      dE/de5(xz)     0.000000 eV/strain
       gamma       90.000000 Degrees      dE/de6(xy)     0.000000 eV/strain
--------------------------------------------------------------------------------

  Primitive cell volume =           193.246419 Angs**3

  Density of cell =      2.775365 g/cm**3

  Non-primitive cell volume =           193.246419 Angs**3


  Final internal derivatives :

--------------------------------------------------------------------------------
   No.  Atomic          a             b             c           Radius
        Label          (eV)          (eV)          (eV)        (eV/Angs)
--------------------------------------------------------------------------------
      1 K     c       0.000000      0.000000      0.000000      0.000000
      2 Zn    c       0.000000      0.000000      0.000000      0.000000
      3 F     c       0.000000      0.000000      0.000000      0.000000
      4 F     c       0.000511      0.000000      0.000000      0.000000
      5 F     s       0.000000      0.000000      0.000000      0.000000
      6 F     s      -0.000395      0.000000      0.000000      0.000000
--------------------------------------------------------------------------------
  Maximum abs         0.000511      0.000000      0.000000      0.000000
--------------------------------------------------------------------------------


  Born effective charge tensors : 

-------------------------------------------------------------------------------
  Atom             x           y             z
-------------------------------------------------------------------------------
   1 K     x       0.7599     -0.0014      0.0000
           y       0.0014      0.7599      0.0000
           z       0.0000      0.0000      0.8945
-------------------------------------------------------------------------------
   2 Zn    x       1.5911     -0.2145      0.0000
           y      -0.2145      1.5911      0.0000
           z       0.0000      0.0000      1.3807
-------------------------------------------------------------------------------
   3 F     x      -0.7858      0.0096      0.0000
           y       0.0096     -0.7858      0.0000
           z       0.0000      0.0000     -0.6534
-------------------------------------------------------------------------------
   4 F     x      -0.7826     -0.1246      0.0000
           y      -0.1246     -0.7826      0.0000
           z       0.0000      0.0000     -0.8109
-------------------------------------------------------------------------------




  Elastic Constant Matrix: (Units=GPa)

-------------------------------------------------------------------------------
  Indices      1         2         3         4         5         6    
-------------------------------------------------------------------------------
       1     62.5481   12.8022   -2.5779    0.0000    0.0000    0.0000
       2     12.8022   62.5481   -2.5779    0.0000    0.0000    0.0000
       3     -2.5779   -2.5779  112.6127    0.0000    0.0000    0.0000
       4      0.0000    0.0000    0.0000    1.4588    0.0000    0.0000
       5      0.0000    0.0000    0.0000    0.0000    1.4588    0.0000
       6      0.0000    0.0000    0.0000    0.0000    0.0000   10.5182
-------------------------------------------------------------------------------


  Elastic Compliance Matrix: (Units=1/GPa)

-------------------------------------------------------------------------------
  Indices      1         2         3         4         5         6    
-------------------------------------------------------------------------------
       1    0.016697 -0.003405  0.000304  0.000000  0.000000  0.000000
       2   -0.003405  0.016697  0.000304  0.000000  0.000000  0.000000
       3    0.000304  0.000304  0.008894  0.000000  0.000000  0.000000
       4    0.000000  0.000000  0.000000  0.685486  0.000000  0.000000
       5    0.000000  0.000000  0.000000  0.000000  0.685486  0.000000
       6    0.000000  0.000000  0.000000  0.000000  0.000000  0.095074
-------------------------------------------------------------------------------

  Mechanical properties :

-------------------------------------------------------------------------------
  Convention :                    Reuss         Voigt         Hill
-------------------------------------------------------------------------------
  Bulk  Modulus (GPa)     =      27.25138      28.11129      27.68133
  Shear Modulus (GPa)     =       3.27620      18.02467      10.65044
-------------------------------------------------------------------------------
  Velocity S-wave (km/s)  =       1.08649       2.54844       1.95895
  Velocity P-wave (km/s)  =       3.37535       4.33454       3.88466
-------------------------------------------------------------------------------
  Compressibility (1/GPa) =    0.03669539
-------------------------------------------------------------------------------
  Stress axis :                     x             y             z
-------------------------------------------------------------------------------
  Youngs Moduli (GPa)     =      59.89046      59.89046     112.43627
-------------------------------------------------------------------------------
  Poissons Ratio (x)      =                     0.20393      -0.03421
  Poissons Ratio (y)      =       0.20393                    -0.03421
  Poissons Ratio (z)      =      -0.01822      -0.01822
-------------------------------------------------------------------------------


  Piezoelectric Strain Matrix: (Units=C/m**2)

-------------------------------------------------------------------------------
  Indices      1         2         3         4         5         6    
-------------------------------------------------------------------------------
       x     0.00000   0.00000   0.00000   0.00000   0.00000   0.00000
       y     0.00000   0.00000   0.00000   0.00000   0.00000   0.00000
       z     0.00000   0.00000   0.00000   0.00000   0.00000   0.00000
-------------------------------------------------------------------------------


  Piezoelectric Stress Matrix: (Units=10**-11 C/N)

-------------------------------------------------------------------------------
  Indices      1         2         3         4         5         6    
-------------------------------------------------------------------------------
       x     0.00000   0.00000   0.00000   0.00000   0.00000   0.00000
       y     0.00000   0.00000   0.00000   0.00000   0.00000   0.00000
       z     0.00000   0.00000   0.00000   0.00000   0.00000   0.00000
-------------------------------------------------------------------------------


  Static dielectric constant tensor : 

-------------------------------------------------------------------------------
              x         y         z
-------------------------------------------------------------------------------
       x     3.41358   0.00000   0.00000
       y     0.00000   3.41358   0.00000
       z     0.00000   0.00000   1.18483
--------------------------------------------------------------------------------

  High frequency dielectric constant tensor : 

-------------------------------------------------------------------------------
              x         y         z
-------------------------------------------------------------------------------
       x     1.40419   0.00000   0.00000
       y     0.00000   1.40419   0.00000
       z     0.00000   0.00000   1.40096
-------------------------------------------------------------------------------

  Static refractive indices : 

-------------------------------------------------------------------------------
    1 =    1.08850      2 =    1.84759      3 =    1.84759
-------------------------------------------------------------------------------

  High frequency refractive indices : 

-------------------------------------------------------------------------------
    1 =    1.18362      2 =    1.18498      3 =    1.18498
-------------------------------------------------------------------------------


  Time to end of optimisation =       0.0503 seconds


  Peak dynamic memory used =       0.59 MB 


  Timing analysis for GULP :

--------------------------------------------------------------------------------
  Task / Subroutine                                          Time (Seconds)
--------------------------------------------------------------------------------
  Calculation of reciprocal space energy and derivatives          0.0009
  Calculation of reciprocal space energy using symmetry           0.0043
  Calculation of real space energy and derivatives                0.0038
  Calculation of real space energy using symmetry                 0.0372
  Symmetry generation of equivalent positions                     0.0004
--------------------------------------------------------------------------------
  Total CPU time                                                  0.0503
--------------------------------------------------------------------------------


  CIF file written as perov.cif                                               


  Job Finished at 14:08.05  6th April      2017                               

