********************************************************************************
*                       GENERAL UTILITY LATTICE PROGRAM                        *
*                                 Julian Gale                                  *
*                      Nanochemistry Research Institute                        *
*                           Department of Chemistry                            *
*                    Curtin University, Western Australia                      *
********************************************************************************
* Version = 4.3.2 * Last modified =  3rd March 2015                            *
********************************************************************************
*  optimise     - perform optimisation run                                     *
*  cell_only    - only optimise unit cell                                      *
*  property     - calculate properties for final geometry                      *
********************************************************************************

  Job Started  at 09:41.45  6th April      2017                               

  Number of CPUs =     1


  Total number of configurations input =   1

********************************************************************************
*  Input for Configuration =   1                                               *
********************************************************************************

  Formula = K4Ca4F12                                                    

  Number of irreducible atoms/shells =       6


  Total number atoms/shells =      32

  Dimensionality = 3               :  Bulk   


  Symmetry :

  Crystal family                   :  Orthorhombic
  Crystal class  (Groth - 1921)    :  Orthorhombic Bipyramidal             

  Space group (centrosymmetric)    :  P N M A         

  Patterson group                  :  P m m m  

  Cartesian lattice vectors (Angstroms) :

        6.223500    0.000000    0.000000
        0.000000    8.710300    0.000000
        0.000000    0.000000    6.118000

  Cell parameters (Angstroms/Degrees):

  a =       6.2235    alpha =  90.0000
  b =       8.7103    beta  =  90.0000
  c =       6.1180    gamma =  90.0000

  Initial cell volume =         331.647921 Angs**3

  Temperature of configuration =  0.000     K 

  Pressure of configuration =         0.000 GPa 

  Fractional coordinates of asymmetric unit :

--------------------------------------------------------------------------------
   No.  Atomic       x           y          z         Charge      Occupancy
        Label      (Frac)      (Frac)     (Frac)        (e)         (Frac)  
--------------------------------------------------------------------------------
      1 K     c    0.042000    0.250000    0.490600     1.10000    1.000000    
      2 Ca    c    0.000000    0.000000    0.000000     1.80000    1.000000    
      3 F     c    0.471500    0.250000    0.581200     0.37800    1.000000    
      4 F     c    0.291600    0.040400    0.206800     0.37800    1.000000    
      5 F     s    0.471500    0.250000    0.581200    -1.34467    1.000000    
      6 F     s    0.291600    0.040400    0.206800    -1.34467    1.000000    
--------------------------------------------------------------------------------



********************************************************************************
*  General input information                                                   *
********************************************************************************

  Species output for all configurations : 

--------------------------------------------------------------------------------
  Species    Type    Atomic    Atomic    Charge       Radii (Angs)     Library
                     Number     Mass       (e)     Cova   Ionic  VDW   Symbol
--------------------------------------------------------------------------------
    K        Core       19      39.10   1.100000   1.330  0.000  2.800          
    Ca       Core       20      40.08   1.800000   0.990  0.000  2.750          
    F        Core        9      19.00   0.378000   0.710  0.000  1.300          
    F        Shell       9       0.00  -1.344667   0.710  0.000  1.300          
--------------------------------------------------------------------------------


  Lattice summation method               =    Ewald          (3-D)
                                         =    Parry          (2-D)
                                         =    Saunders et al (1-D)
  Accuracy factor for lattice sums       =   12.000


  Time limit = Infinity

  Maximum range for interatomic potentials =    100000.000000 Angstroms

  General interatomic potentials :

--------------------------------------------------------------------------------
Atom  Types   Potential         A         B         C         D     Cutoffs(Ang)
  1     2                                                            Min    Max 
--------------------------------------------------------------------------------
K    c K    c Buckingham    0.219E+04 0.192      0.00      0.00     0.000 20.000
Ca   c F    s Buckingham    0.148E+04 0.266      0.00      0.00     0.000 20.000
F    s F    s Buckingham     912.     0.271      13.8      0.00     0.000 20.000
K    c F    s Buckingham    0.352E+04 0.267      0.00      0.00     0.000 20.000
F    c F    s Spring (c-s)   23.2      0.00      0.00      0.00     0.000  0.800
--------------------------------------------------------------------------------

********************************************************************************
*  Output for configuration   1                                                *
********************************************************************************


  Components of energy : 

--------------------------------------------------------------------------------
  Interatomic potentials     =          10.64846977 eV
  Monopole - monopole (real) =         -65.62132273 eV
  Monopole - monopole (recip)=         -80.53554299 eV
  Monopole - monopole (total)=        -146.15686572 eV
--------------------------------------------------------------------------------
  Total lattice energy       =        -135.50839595 eV
--------------------------------------------------------------------------------
  Total lattice energy       =          -13074.4888 kJ/(mole unit cells)
--------------------------------------------------------------------------------


  Number of variables =        3

  Maximum number of calculations  =          1000
  Maximum Hessian update interval =            10
  Maximum step size               =   1.000000000
  Maximum parameter tolerance     =   0.000010000
  Maximum function  tolerance     =   0.000010000
  Maximum gradient  tolerance     =   0.001000000
  Maximum gradient  component     =   0.010000000

  Symmetry constrained optimisation

  Symmetry used for second derivatives

  Cell parameters to be optimised using strains

  Newton-Raphson optimiser to be used

  BFGS hessian update to be used

  Start of bulk optimisation :

  Cycle:      0 Energy:      -135.508396  Gnorm:      8.992147  CPU:    0.008
  ** Hessian calculated **
  Cycle:      1 Energy:      -136.830683  Gnorm:      1.779352  CPU:    0.016
  Cycle:      2 Energy:      -136.866509  Gnorm:      0.470392  CPU:    0.024
  Cycle:      3 Energy:      -136.869927  Gnorm:      0.097580  CPU:    0.034
  Cycle:      4 Energy:      -136.870100  Gnorm:      0.000775  CPU:    0.044


  **** Optimisation achieved ****


  Final energy =    -136.87010027 eV
  Final Gnorm  =       0.00001681

  Components of energy : 

--------------------------------------------------------------------------------
  Interatomic potentials     =          17.42714757 eV
  Monopole - monopole (real) =         -69.27322074 eV
  Monopole - monopole (recip)=         -85.02402709 eV
  Monopole - monopole (total)=        -154.29724783 eV
--------------------------------------------------------------------------------
  Total lattice energy       =        -136.87010027 eV
--------------------------------------------------------------------------------
  Total lattice energy       =          -13205.8724 kJ/(mole unit cells)
--------------------------------------------------------------------------------

  Final asymmetric unit coordinates :

--------------------------------------------------------------------------------
   No.  Atomic        x           y           z         Radius
        Label       (Frac)      (Frac)      (Frac)       (Angs) 
--------------------------------------------------------------------------------
     1  K     c     0.042000    0.250000    0.490600    0.000000
     2  Ca    c     0.000000    0.000000    0.000000    0.000000
     3  F     c     0.471500    0.250000    0.581200    0.000000
     4  F     c     0.291600    0.040400    0.206800    0.000000
     5  F     s     0.471500    0.250000    0.581200    0.000000
     6  F     s     0.291600    0.040400    0.206800    0.000000
--------------------------------------------------------------------------------

  Final Cartesian lattice vectors (Angstroms) :

        5.915128    0.000000    0.000000
        0.000000    8.206860    0.000000
        0.000000    0.000000    5.805943


  Final cell parameters and derivatives :

--------------------------------------------------------------------------------
       a            5.915128 Angstrom     dE/de1(xx)    -0.000013 eV/strain
       b            8.206860 Angstrom     dE/de2(yy)    -0.000044 eV/strain
       c            5.805943 Angstrom     dE/de3(zz)    -0.000020 eV/strain
       alpha       90.000000 Degrees      dE/de4(yz)     0.000000 eV/strain
       beta        90.000000 Degrees      dE/de5(xz)     0.000000 eV/strain
       gamma       90.000000 Degrees      dE/de6(xy)     0.000000 eV/strain
--------------------------------------------------------------------------------

  Primitive cell volume =           281.847308 Angs**3

  Density of cell =      3.209338 g/cm**3

  Non-primitive cell volume =           281.847308 Angs**3


  Final internal derivatives :

--------------------------------------------------------------------------------
   No.  Atomic          a             b             c           Radius
        Label          (eV)          (eV)          (eV)        (eV/Angs)
--------------------------------------------------------------------------------
      1 K     c       0.000000      0.000000      0.000000      0.000000
      2 Ca    c       0.000000      0.000000      0.000000      0.000000
      3 F     c       0.000000      0.000000      0.000000      0.000000
      4 F     c       0.000000      0.000000      0.000000      0.000000
      5 F     s       0.000000      0.000000      0.000000      0.000000
      6 F     s       0.000000      0.000000      0.000000      0.000000
--------------------------------------------------------------------------------
  Maximum abs         0.000000      0.000000      0.000000      0.000000
--------------------------------------------------------------------------------


  Born effective charge tensors : 

-------------------------------------------------------------------------------
  Atom             x           y             z
-------------------------------------------------------------------------------
   1 K     x       1.0093      0.0000     -0.0366
           y       0.0000      1.0506      0.0000
           z      -0.0392      0.0000      0.9991
-------------------------------------------------------------------------------
   2 Ca    x       1.5659      0.0112     -0.0155
           y       0.0029      1.5335     -0.0060
           z       0.0022      0.0165      1.5662
-------------------------------------------------------------------------------
   3 F     x      -0.8140      0.0000      0.0189
           y       0.0000     -0.9256      0.0000
           z       0.0282      0.0000     -0.7918
-------------------------------------------------------------------------------
   4 F     x      -0.8806      0.0208     -0.0611
           y       0.0264     -0.8292     -0.0238
           z      -0.0595     -0.0243     -0.8867
-------------------------------------------------------------------------------




  Elastic Constant Matrix: (Units=GPa)

-------------------------------------------------------------------------------
  Indices      1         2         3         4         5         6    
-------------------------------------------------------------------------------
       1    101.7449   44.0106   46.3378    0.0000    0.0000    0.0000
       2     44.0106  108.2413   48.3106    0.0000    0.0000    0.0000
       3     46.3378   48.3106  107.1077    0.0000    0.0000    0.0000
       4      0.0000    0.0000    0.0000   34.0176    0.0000    0.0000
       5      0.0000    0.0000    0.0000    0.0000   28.4202    0.0000
       6      0.0000    0.0000    0.0000    0.0000    0.0000   39.1584
-------------------------------------------------------------------------------


  Elastic Compliance Matrix: (Units=1/GPa)

-------------------------------------------------------------------------------
  Indices      1         2         3         4         5         6    
-------------------------------------------------------------------------------
       1    0.013242 -0.003540 -0.004132  0.000000  0.000000  0.000000
       2   -0.003540  0.012513 -0.004113  0.000000  0.000000  0.000000
       3   -0.004132 -0.004113  0.012979  0.000000  0.000000  0.000000
       4    0.000000  0.000000  0.000000  0.029397  0.000000  0.000000
       5    0.000000  0.000000  0.000000  0.000000  0.035186  0.000000
       6    0.000000  0.000000  0.000000  0.000000  0.000000  0.025537
-------------------------------------------------------------------------------

  Mechanical properties :

-------------------------------------------------------------------------------
  Convention :                    Reuss         Voigt         Hill
-------------------------------------------------------------------------------
  Bulk  Modulus (GPa)     =      65.94152      66.04575      65.99363
  Shear Modulus (GPa)     =      31.75042      32.21492      31.98267
-------------------------------------------------------------------------------
  Velocity S-wave (km/s)  =       3.14534       3.16826       3.15682
  Velocity P-wave (km/s)  =       5.80841       5.82778       5.81810
-------------------------------------------------------------------------------
  Compressibility (1/GPa) =    0.01516495
-------------------------------------------------------------------------------
  Stress axis :                     x             y             z
-------------------------------------------------------------------------------
  Youngs Moduli (GPa)     =      75.52010      79.91377      77.04698
-------------------------------------------------------------------------------
  Poissons Ratio (x)      =                     0.28287       0.31836
  Poissons Ratio (y)      =       0.26732                     0.31688
  Poissons Ratio (z)      =       0.31205       0.32867
-------------------------------------------------------------------------------


  Piezoelectric Strain Matrix: (Units=C/m**2)

-------------------------------------------------------------------------------
  Indices      1         2         3         4         5         6    
-------------------------------------------------------------------------------
       x     0.00000   0.00000   0.00000   0.00000   0.00000   0.00000
       y     0.00000   0.00000   0.00000   0.00000   0.00000   0.00000
       z     0.00000   0.00000   0.00000   0.00000   0.00000   0.00000
-------------------------------------------------------------------------------


  Piezoelectric Stress Matrix: (Units=10**-11 C/N)

-------------------------------------------------------------------------------
  Indices      1         2         3         4         5         6    
-------------------------------------------------------------------------------
       x     0.00000   0.00000   0.00000   0.00000   0.00000   0.00000
       y     0.00000   0.00000   0.00000   0.00000   0.00000   0.00000
       z     0.00000   0.00000   0.00000   0.00000   0.00000   0.00000
-------------------------------------------------------------------------------


  Static dielectric constant tensor : 

-------------------------------------------------------------------------------
              x         y         z
-------------------------------------------------------------------------------
       x     4.09296   0.00000   0.00000
       y     0.00000   4.44011   0.00000
       z     0.00000   0.00000   3.85340
--------------------------------------------------------------------------------

  High frequency dielectric constant tensor : 

-------------------------------------------------------------------------------
              x         y         z
-------------------------------------------------------------------------------
       x     1.58628   0.00000   0.00000
       y     0.00000   1.58807   0.00000
       z     0.00000   0.00000   1.58409
-------------------------------------------------------------------------------

  Static refractive indices : 

-------------------------------------------------------------------------------
    1 =    1.96301      2 =    2.02311      3 =    2.10716
-------------------------------------------------------------------------------

  High frequency refractive indices : 

-------------------------------------------------------------------------------
    1 =    1.25861      2 =    1.25948      3 =    1.26019
-------------------------------------------------------------------------------


  Time to end of optimisation =       0.0745 seconds


  Peak dynamic memory used =       0.73 MB 


  Timing analysis for GULP :

--------------------------------------------------------------------------------
  Task / Subroutine                                          Time (Seconds)
--------------------------------------------------------------------------------
  Calculation of reciprocal space energy and derivatives          0.0026
  Calculation of reciprocal space energy using symmetry           0.0046
  Calculation of real space energy and derivatives                0.0189
  Calculation of real space energy using symmetry                 0.0442
  Symmetry generation of equivalent positions                     0.0004
--------------------------------------------------------------------------------
  Total CPU time                                                  0.0746
--------------------------------------------------------------------------------


  CIF file written as perov.cif                                               


  Job Finished at 09:41.45  6th April      2017                               

