********************************************************************************
*                       GENERAL UTILITY LATTICE PROGRAM                        *
*                                 Julian Gale                                  *
*                      Nanochemistry Research Institute                        *
*                           Department of Chemistry                            *
*                    Curtin University, Western Australia                      *
********************************************************************************
* Version = 4.3.2 * Last modified =  3rd March 2015                            *
********************************************************************************
*  optimise     - perform optimisation run                                     *
*  cell_only    - only optimise unit cell                                      *
*  property     - calculate properties for final geometry                      *
********************************************************************************

  Job Started  at 09:41.49  6th April      2017                               

  Number of CPUs =     1


  Total number of configurations input =   1

********************************************************************************
*  Input for Configuration =   1                                               *
********************************************************************************

  Formula = K4Ca4F12                                                    

  Number of irreducible atoms/shells =       6


  Total number atoms/shells =      32

  Dimensionality = 3               :  Bulk   


  Symmetry :

  Crystal family                   :  Orthorhombic
  Crystal class  (Groth - 1921)    :  Orthorhombic Bipyramidal             

  Space group (centrosymmetric)    :  P N M A         

  Patterson group                  :  P m m m  

  Cartesian lattice vectors (Angstroms) :

        6.223500    0.000000    0.000000
        0.000000    8.710300    0.000000
        0.000000    0.000000    6.118000

  Cell parameters (Angstroms/Degrees):

  a =       6.2235    alpha =  90.0000
  b =       8.7103    beta  =  90.0000
  c =       6.1180    gamma =  90.0000

  Initial cell volume =         331.647921 Angs**3

  Temperature of configuration =  0.000     K 

  Pressure of configuration =         0.000 GPa 

  Fractional coordinates of asymmetric unit :

--------------------------------------------------------------------------------
   No.  Atomic       x           y          z         Charge      Occupancy
        Label      (Frac)      (Frac)     (Frac)        (e)         (Frac)  
--------------------------------------------------------------------------------
      1 K     c    0.042000    0.250000    0.490600     1.50000    1.000000    
      2 Ca    c    0.000000    0.000000    0.000000     1.80000    1.000000    
      3 F     c    0.471500    0.250000    0.581200     0.37800    1.000000    
      4 F     c    0.291600    0.040400    0.206800     0.37800    1.000000    
      5 F     s    0.471500    0.250000    0.581200    -1.47800    1.000000    
      6 F     s    0.291600    0.040400    0.206800    -1.47800    1.000000    
--------------------------------------------------------------------------------



********************************************************************************
*  General input information                                                   *
********************************************************************************

  Species output for all configurations : 

--------------------------------------------------------------------------------
  Species    Type    Atomic    Atomic    Charge       Radii (Angs)     Library
                     Number     Mass       (e)     Cova   Ionic  VDW   Symbol
--------------------------------------------------------------------------------
    K        Core       19      39.10   1.500000   1.330  0.000  2.800          
    Ca       Core       20      40.08   1.800000   0.990  0.000  2.750          
    F        Core        9      19.00   0.378000   0.710  0.000  1.300          
    F        Shell       9       0.00  -1.478000   0.710  0.000  1.300          
--------------------------------------------------------------------------------


  Lattice summation method               =    Ewald          (3-D)
                                         =    Parry          (2-D)
                                         =    Saunders et al (1-D)
  Accuracy factor for lattice sums       =   12.000


  Time limit = Infinity

  Maximum range for interatomic potentials =    100000.000000 Angstroms

  General interatomic potentials :

--------------------------------------------------------------------------------
Atom  Types   Potential         A         B         C         D     Cutoffs(Ang)
  1     2                                                            Min    Max 
--------------------------------------------------------------------------------
K    c K    c Buckingham    0.219E+04 0.192      0.00      0.00     0.000 20.000
Ca   c F    s Buckingham    0.148E+04 0.266      0.00      0.00     0.000 20.000
F    s F    s Buckingham     912.     0.271      13.8      0.00     0.000 20.000
K    c F    s Buckingham    0.352E+04 0.267      0.00      0.00     0.000 20.000
F    c F    s Spring (c-s)   28.0      0.00      0.00      0.00     0.000  0.800
--------------------------------------------------------------------------------

********************************************************************************
*  Output for configuration   1                                                *
********************************************************************************


  Components of energy : 

--------------------------------------------------------------------------------
  Interatomic potentials     =          10.64846977 eV
  Monopole - monopole (real) =         -80.56142511 eV
  Monopole - monopole (recip)=        -101.22527614 eV
  Monopole - monopole (total)=        -181.78670125 eV
--------------------------------------------------------------------------------
  Total lattice energy       =        -171.13823148 eV
--------------------------------------------------------------------------------
  Total lattice energy       =          -16512.2233 kJ/(mole unit cells)
--------------------------------------------------------------------------------


  Number of variables =        3

  Maximum number of calculations  =          1000
  Maximum Hessian update interval =            10
  Maximum step size               =   1.000000000
  Maximum parameter tolerance     =   0.000010000
  Maximum function  tolerance     =   0.000010000
  Maximum gradient  tolerance     =   0.001000000
  Maximum gradient  component     =   0.010000000

  Symmetry constrained optimisation

  Symmetry used for second derivatives

  Cell parameters to be optimised using strains

  Newton-Raphson optimiser to be used

  BFGS hessian update to be used

  Start of bulk optimisation :

  Cycle:      0 Energy:      -171.138231  Gnorm:     15.849616  CPU:    0.009
  ** Hessian calculated **
  Cycle:      1 Energy:      -174.861491  Gnorm:      5.192176  CPU:    0.017
  Cycle:      2 Energy:      -175.112703  Gnorm:      0.383509  CPU:    0.027
  Cycle:      3 Energy:      -175.116533  Gnorm:      0.069623  CPU:    0.036
  Cycle:      4 Energy:      -175.116586  Gnorm:      0.000883  CPU:    0.046


  **** Optimisation achieved ****


  Final energy =    -175.11658628 eV
  Final Gnorm  =       0.00013015

  Components of energy : 

--------------------------------------------------------------------------------
  Interatomic potentials     =          23.08611292 eV
  Monopole - monopole (real) =         -87.83297486 eV
  Monopole - monopole (recip)=        -110.36972433 eV
  Monopole - monopole (total)=        -198.20269920 eV
--------------------------------------------------------------------------------
  Total lattice energy       =        -175.11658628 eV
--------------------------------------------------------------------------------
  Total lattice energy       =          -16896.0737 kJ/(mole unit cells)
--------------------------------------------------------------------------------

  Final asymmetric unit coordinates :

--------------------------------------------------------------------------------
   No.  Atomic        x           y           z         Radius
        Label       (Frac)      (Frac)      (Frac)       (Angs) 
--------------------------------------------------------------------------------
     1  K     c     0.042000    0.250000    0.490600    0.000000
     2  Ca    c     0.000000    0.000000    0.000000    0.000000
     3  F     c     0.471500    0.250000    0.581200    0.000000
     4  F     c     0.291600    0.040400    0.206800    0.000000
     5  F     s     0.471500    0.250000    0.581200    0.000000
     6  F     s     0.291600    0.040400    0.206800    0.000000
--------------------------------------------------------------------------------

  Final Cartesian lattice vectors (Angstroms) :

        5.730216    0.000000    0.000000
        0.000000    7.946762    0.000000
        0.000000    0.000000    5.618680


  Final cell parameters and derivatives :

--------------------------------------------------------------------------------
       a            5.730216 Angstrom     dE/de1(xx)     0.000260 eV/strain
       b            7.946762 Angstrom     dE/de2(yy)     0.000010 eV/strain
       c            5.618680 Angstrom     dE/de3(zz)    -0.000291 eV/strain
       alpha       90.000000 Degrees      dE/de4(yz)     0.000000 eV/strain
       beta        90.000000 Degrees      dE/de5(xz)     0.000000 eV/strain
       gamma       90.000000 Degrees      dE/de6(xy)     0.000000 eV/strain
--------------------------------------------------------------------------------

  Primitive cell volume =           255.855948 Angs**3

  Density of cell =      3.535361 g/cm**3

  Non-primitive cell volume =           255.855948 Angs**3


  Final internal derivatives :

--------------------------------------------------------------------------------
   No.  Atomic          a             b             c           Radius
        Label          (eV)          (eV)          (eV)        (eV/Angs)
--------------------------------------------------------------------------------
      1 K     c       0.000000      0.000000      0.000000      0.000000
      2 Ca    c       0.000000      0.000000      0.000000      0.000000
      3 F     c       0.000000      0.000000      0.000000      0.000000
      4 F     c       0.000000      0.000000      0.000000      0.000000
      5 F     s       0.000000      0.000000      0.000000      0.000000
      6 F     s       0.000000      0.000000      0.000000      0.000000
--------------------------------------------------------------------------------
  Maximum abs         0.000000      0.000000      0.000000      0.000000
--------------------------------------------------------------------------------


  Born effective charge tensors : 

-------------------------------------------------------------------------------
  Atom             x           y             z
-------------------------------------------------------------------------------
   1 K     x       1.4458      0.0000     -0.0368
           y       0.0000      1.4941      0.0000
           z      -0.0418      0.0000      1.4339
-------------------------------------------------------------------------------
   2 Ca    x       1.4944      0.0153     -0.0090
           y       0.0079      1.4594      0.0004
           z      -0.0017      0.0119      1.4935
-------------------------------------------------------------------------------
   3 F     x      -0.9639      0.0000      0.0151
           y       0.0000     -0.9876      0.0000
           z       0.0209      0.0000     -0.9388
-------------------------------------------------------------------------------
   4 F     x      -0.9881      0.0229     -0.0153
           y       0.0315     -0.9830     -0.0334
           z      -0.0135     -0.0354     -0.9943
-------------------------------------------------------------------------------




  Elastic Constant Matrix: (Units=GPa)

-------------------------------------------------------------------------------
  Indices      1         2         3         4         5         6    
-------------------------------------------------------------------------------
       1    138.6406   58.6006   62.9990    0.0000    0.0000    0.0000
       2     58.6006  151.3856   62.7536    0.0000    0.0000    0.0000
       3     62.9990   62.7536  149.5439    0.0000    0.0000    0.0000
       4      0.0000    0.0000    0.0000   47.0713    0.0000    0.0000
       5      0.0000    0.0000    0.0000    0.0000   42.9711    0.0000
       6      0.0000    0.0000    0.0000    0.0000    0.0000   53.3406
-------------------------------------------------------------------------------


  Elastic Compliance Matrix: (Units=1/GPa)

-------------------------------------------------------------------------------
  Indices      1         2         3         4         5         6    
-------------------------------------------------------------------------------
       1    0.009631 -0.002477 -0.003018  0.000000  0.000000  0.000000
       2   -0.002477  0.008634 -0.002579  0.000000  0.000000  0.000000
       3   -0.003018 -0.002579  0.009041  0.000000  0.000000  0.000000
       4    0.000000  0.000000  0.000000  0.021244  0.000000  0.000000
       5    0.000000  0.000000  0.000000  0.000000  0.023271  0.000000
       6    0.000000  0.000000  0.000000  0.000000  0.000000  0.018747
-------------------------------------------------------------------------------

  Mechanical properties :

-------------------------------------------------------------------------------
  Convention :                    Reuss         Voigt         Hill
-------------------------------------------------------------------------------
  Bulk  Modulus (GPa)     =      89.63163      89.80850      89.72007
  Shear Modulus (GPa)     =      45.27458      45.69107      45.48283
-------------------------------------------------------------------------------
  Velocity S-wave (km/s)  =       3.57858       3.59500       3.58680
  Velocity P-wave (km/s)  =       6.51367       6.52954       6.52161
-------------------------------------------------------------------------------
  Compressibility (1/GPa) =    0.01115678
-------------------------------------------------------------------------------
  Stress axis :                     x             y             z
-------------------------------------------------------------------------------
  Youngs Moduli (GPa)     =     103.82795     115.82351     110.60995
-------------------------------------------------------------------------------
  Poissons Ratio (x)      =                     0.28692       0.33381
  Poissons Ratio (y)      =       0.25721                     0.28531
  Poissons Ratio (z)      =       0.31334       0.29876
-------------------------------------------------------------------------------


  Piezoelectric Strain Matrix: (Units=C/m**2)

-------------------------------------------------------------------------------
  Indices      1         2         3         4         5         6    
-------------------------------------------------------------------------------
       x     0.00000   0.00000   0.00000   0.00000   0.00000   0.00000
       y     0.00000   0.00000   0.00000   0.00000   0.00000   0.00000
       z     0.00000   0.00000   0.00000   0.00000   0.00000   0.00000
-------------------------------------------------------------------------------


  Piezoelectric Stress Matrix: (Units=10**-11 C/N)

-------------------------------------------------------------------------------
  Indices      1         2         3         4         5         6    
-------------------------------------------------------------------------------
       x     0.00000   0.00000   0.00000   0.00000   0.00000   0.00000
       y     0.00000   0.00000   0.00000   0.00000   0.00000   0.00000
       z     0.00000   0.00000   0.00000   0.00000   0.00000   0.00000
-------------------------------------------------------------------------------


  Static dielectric constant tensor : 

-------------------------------------------------------------------------------
              x         y         z
-------------------------------------------------------------------------------
       x     5.06547   0.00000   0.00000
       y     0.00000   6.42604   0.00000
       z     0.00000   0.00000   4.82493
--------------------------------------------------------------------------------

  High frequency dielectric constant tensor : 

-------------------------------------------------------------------------------
              x         y         z
-------------------------------------------------------------------------------
       x     1.64504   0.00000   0.00000
       y     0.00000   1.64762   0.00000
       z     0.00000   0.00000   1.64242
-------------------------------------------------------------------------------

  Static refractive indices : 

-------------------------------------------------------------------------------
    1 =    2.19657      2 =    2.25066      3 =    2.53496
-------------------------------------------------------------------------------

  High frequency refractive indices : 

-------------------------------------------------------------------------------
    1 =    1.28157      2 =    1.28259      3 =    1.28360
-------------------------------------------------------------------------------


  Time to end of optimisation =       0.0787 seconds


  Peak dynamic memory used =       0.73 MB 


  Timing analysis for GULP :

--------------------------------------------------------------------------------
  Task / Subroutine                                          Time (Seconds)
--------------------------------------------------------------------------------
  Calculation of reciprocal space energy and derivatives          0.0026
  Calculation of reciprocal space energy using symmetry           0.0047
  Calculation of real space energy and derivatives                0.0200
  Calculation of real space energy using symmetry                 0.0468
  Symmetry generation of equivalent positions                     0.0004
--------------------------------------------------------------------------------
  Total CPU time                                                  0.0787
--------------------------------------------------------------------------------


  CIF file written as perov.cif                                               


  Job Finished at 09:41.49  6th April      2017                               

