********************************************************************************
*                       GENERAL UTILITY LATTICE PROGRAM                        *
*                                 Julian Gale                                  *
*                      Nanochemistry Research Institute                        *
*                           Department of Chemistry                            *
*                    Curtin University, Western Australia                      *
********************************************************************************
* Version = 4.3.2 * Last modified =  3rd March 2015                            *
********************************************************************************
*  optimise     - perform optimisation run                                     *
*  cell_only    - only optimise unit cell                                      *
*  property     - calculate properties for final geometry                      *
********************************************************************************

  Job Started  at 09:41.44  6th April      2017                               

  Number of CPUs =     1


  Total number of configurations input =   1

********************************************************************************
*  Input for Configuration =   1                                               *
********************************************************************************

  Formula = K4Ca4F12                                                    

  Number of irreducible atoms/shells =       6


  Total number atoms/shells =      32

  Dimensionality = 3               :  Bulk   


  Symmetry :

  Crystal family                   :  Orthorhombic
  Crystal class  (Groth - 1921)    :  Orthorhombic Bipyramidal             

  Space group (centrosymmetric)    :  P N M A         

  Patterson group                  :  P m m m  

  Cartesian lattice vectors (Angstroms) :

        6.223500    0.000000    0.000000
        0.000000    8.710300    0.000000
        0.000000    0.000000    6.118000

  Cell parameters (Angstroms/Degrees):

  a =       6.2235    alpha =  90.0000
  b =       8.7103    beta  =  90.0000
  c =       6.1180    gamma =  90.0000

  Initial cell volume =         331.647921 Angs**3

  Temperature of configuration =  0.000     K 

  Pressure of configuration =         0.000 GPa 

  Fractional coordinates of asymmetric unit :

--------------------------------------------------------------------------------
   No.  Atomic       x           y          z         Charge      Occupancy
        Label      (Frac)      (Frac)     (Frac)        (e)         (Frac)  
--------------------------------------------------------------------------------
      1 K     c    0.042000    0.250000    0.490600     1.00000    1.000000    
      2 Ca    c    0.000000    0.000000    0.000000     1.90000    1.000000    
      3 F     c    0.471500    0.250000    0.581200     0.37800    1.000000    
      4 F     c    0.291600    0.040400    0.206800     0.37800    1.000000    
      5 F     s    0.471500    0.250000    0.581200    -1.34467    1.000000    
      6 F     s    0.291600    0.040400    0.206800    -1.34467    1.000000    
--------------------------------------------------------------------------------



********************************************************************************
*  General input information                                                   *
********************************************************************************

  Species output for all configurations : 

--------------------------------------------------------------------------------
  Species    Type    Atomic    Atomic    Charge       Radii (Angs)     Library
                     Number     Mass       (e)     Cova   Ionic  VDW   Symbol
--------------------------------------------------------------------------------
    K        Core       19      39.10   1.000000   1.330  0.000  2.800          
    Ca       Core       20      40.08   1.900000   0.990  0.000  2.750          
    F        Core        9      19.00   0.378000   0.710  0.000  1.300          
    F        Shell       9       0.00  -1.344667   0.710  0.000  1.300          
--------------------------------------------------------------------------------


  Lattice summation method               =    Ewald          (3-D)
                                         =    Parry          (2-D)
                                         =    Saunders et al (1-D)
  Accuracy factor for lattice sums       =   12.000


  Time limit = Infinity

  Maximum range for interatomic potentials =    100000.000000 Angstroms

  General interatomic potentials :

--------------------------------------------------------------------------------
Atom  Types   Potential         A         B         C         D     Cutoffs(Ang)
  1     2                                                            Min    Max 
--------------------------------------------------------------------------------
K    c K    c Buckingham    0.219E+04 0.192      0.00      0.00     0.000 20.000
Ca   c F    s Buckingham    0.148E+04 0.266      0.00      0.00     0.000 20.000
F    s F    s Buckingham     912.     0.271      13.8      0.00     0.000 20.000
K    c F    s Buckingham    0.352E+04 0.267      0.00      0.00     0.000 20.000
F    c F    s Spring (c-s)   23.2      0.00      0.00      0.00     0.000  0.800
--------------------------------------------------------------------------------

********************************************************************************
*  Output for configuration   1                                                *
********************************************************************************


  Components of energy : 

--------------------------------------------------------------------------------
  Interatomic potentials     =          10.64846977 eV
  Monopole - monopole (real) =         -67.35333867 eV
  Monopole - monopole (recip)=         -82.30661872 eV
  Monopole - monopole (total)=        -149.65995739 eV
--------------------------------------------------------------------------------
  Total lattice energy       =        -139.01148762 eV
--------------------------------------------------------------------------------
  Total lattice energy       =          -13412.4836 kJ/(mole unit cells)
--------------------------------------------------------------------------------


  Number of variables =        3

  Maximum number of calculations  =          1000
  Maximum Hessian update interval =            10
  Maximum step size               =   1.000000000
  Maximum parameter tolerance     =   0.000010000
  Maximum function  tolerance     =   0.000010000
  Maximum gradient  tolerance     =   0.001000000
  Maximum gradient  component     =   0.010000000

  Symmetry constrained optimisation

  Symmetry used for second derivatives

  Cell parameters to be optimised using strains

  Newton-Raphson optimiser to be used

  BFGS hessian update to be used

  Start of bulk optimisation :

  Cycle:      0 Energy:      -139.011488  Gnorm:      9.666128  CPU:    0.012
  ** Hessian calculated **
  Cycle:      1 Energy:      -140.524040  Gnorm:      2.045096  CPU:    0.020
  Cycle:      2 Energy:      -140.569290  Gnorm:      0.574586  CPU:    0.028
  Cycle:      3 Energy:      -140.574365  Gnorm:      0.142825  CPU:    0.038
  Cycle:      4 Energy:      -140.574707  Gnorm:      0.000979  CPU:    0.046


  **** Optimisation achieved ****


  Final energy =    -140.57470741 eV
  Final Gnorm  =       0.00002865

  Components of energy : 

--------------------------------------------------------------------------------
  Interatomic potentials     =          17.96591203 eV
  Monopole - monopole (real) =         -71.34692040 eV
  Monopole - monopole (recip)=         -87.19369903 eV
  Monopole - monopole (total)=        -158.54061944 eV
--------------------------------------------------------------------------------
  Total lattice energy       =        -140.57470741 eV
--------------------------------------------------------------------------------
  Total lattice energy       =          -13563.3104 kJ/(mole unit cells)
--------------------------------------------------------------------------------

  Final asymmetric unit coordinates :

--------------------------------------------------------------------------------
   No.  Atomic        x           y           z         Radius
        Label       (Frac)      (Frac)      (Frac)       (Angs) 
--------------------------------------------------------------------------------
     1  K     c     0.042000    0.250000    0.490600    0.000000
     2  Ca    c     0.000000    0.000000    0.000000    0.000000
     3  F     c     0.471500    0.250000    0.581200    0.000000
     4  F     c     0.291600    0.040400    0.206800    0.000000
     5  F     s     0.471500    0.250000    0.581200    0.000000
     6  F     s     0.291600    0.040400    0.206800    0.000000
--------------------------------------------------------------------------------

  Final Cartesian lattice vectors (Angstroms) :

        5.894291    0.000000    0.000000
        0.000000    8.177955    0.000000
        0.000000    0.000000    5.786923


  Final cell parameters and derivatives :

--------------------------------------------------------------------------------
       a            5.894291 Angstrom     dE/de1(xx)    -0.000031 eV/strain
       b            8.177955 Angstrom     dE/de2(yy)    -0.000075 eV/strain
       c            5.786923 Angstrom     dE/de3(zz)    -0.000028 eV/strain
       alpha       90.000000 Degrees      dE/de4(yz)     0.000000 eV/strain
       beta        90.000000 Degrees      dE/de5(xz)     0.000000 eV/strain
       gamma       90.000000 Degrees      dE/de6(xy)     0.000000 eV/strain
--------------------------------------------------------------------------------

  Primitive cell volume =           278.948482 Angs**3

  Density of cell =      3.242689 g/cm**3

  Non-primitive cell volume =           278.948482 Angs**3


  Final internal derivatives :

--------------------------------------------------------------------------------
   No.  Atomic          a             b             c           Radius
        Label          (eV)          (eV)          (eV)        (eV/Angs)
--------------------------------------------------------------------------------
      1 K     c       0.000000      0.000000      0.000000      0.000000
      2 Ca    c       0.000000      0.000000      0.000000      0.000000
      3 F     c       0.000000      0.000000      0.000000      0.000000
      4 F     c       0.000000      0.000000      0.000000      0.000000
      5 F     s       0.000000      0.000000      0.000000      0.000000
      6 F     s       0.000000      0.000000      0.000000      0.000000
--------------------------------------------------------------------------------
  Maximum abs         0.000000      0.000000      0.000000      0.000000
--------------------------------------------------------------------------------


  Born effective charge tensors : 

-------------------------------------------------------------------------------
  Atom             x           y             z
-------------------------------------------------------------------------------
   1 K     x       0.8836      0.0000     -0.0413
           y       0.0000      0.9261      0.0000
           z      -0.0424      0.0000      0.8733
-------------------------------------------------------------------------------
   2 Ca    x       1.6848      0.0108     -0.0217
           y       0.0005      1.6505     -0.0116
           z       0.0054      0.0219      1.6856
-------------------------------------------------------------------------------
   3 F     x      -0.7932      0.0000      0.0221
           y       0.0000     -0.9604      0.0000
           z       0.0342      0.0000     -0.7706
-------------------------------------------------------------------------------
   4 F     x      -0.8876      0.0216     -0.0899
           y       0.0267     -0.8081     -0.0215
           z      -0.0881     -0.0215     -0.8942
-------------------------------------------------------------------------------




  Elastic Constant Matrix: (Units=GPa)

-------------------------------------------------------------------------------
  Indices      1         2         3         4         5         6    
-------------------------------------------------------------------------------
       1    104.7449   46.0815   47.4314    0.0000    0.0000    0.0000
       2     46.0815  109.9447   51.2365    0.0000    0.0000    0.0000
       3     47.4314   51.2365  109.8874    0.0000    0.0000    0.0000
       4      0.0000    0.0000    0.0000   35.3468    0.0000    0.0000
       5      0.0000    0.0000    0.0000    0.0000   27.5874    0.0000
       6      0.0000    0.0000    0.0000    0.0000    0.0000   40.9538
-------------------------------------------------------------------------------


  Elastic Compliance Matrix: (Units=1/GPa)

-------------------------------------------------------------------------------
  Indices      1         2         3         4         5         6    
-------------------------------------------------------------------------------
       1    0.012887 -0.003589 -0.003889  0.000000  0.000000  0.000000
       2   -0.003589  0.012620 -0.004335  0.000000  0.000000  0.000000
       3   -0.003889 -0.004335  0.012800  0.000000  0.000000  0.000000
       4    0.000000  0.000000  0.000000  0.028291  0.000000  0.000000
       5    0.000000  0.000000  0.000000  0.000000  0.036248  0.000000
       6    0.000000  0.000000  0.000000  0.000000  0.000000  0.024418
-------------------------------------------------------------------------------

  Mechanical properties :

-------------------------------------------------------------------------------
  Convention :                    Reuss         Voigt         Hill
-------------------------------------------------------------------------------
  Bulk  Modulus (GPa)     =      68.11598      68.23067      68.17333
  Shear Modulus (GPa)     =      32.09559      32.76609      32.43084
-------------------------------------------------------------------------------
  Velocity S-wave (km/s)  =       3.14608       3.17877       3.16247
  Velocity P-wave (km/s)  =       5.84834       5.87488       5.86163
-------------------------------------------------------------------------------
  Compressibility (1/GPa) =    0.01468084
-------------------------------------------------------------------------------
  Stress axis :                     x             y             z
-------------------------------------------------------------------------------
  Youngs Moduli (GPa)     =      77.59734      79.23931      78.12370
-------------------------------------------------------------------------------
  Poissons Ratio (x)      =                     0.28439       0.30383
  Poissons Ratio (y)      =       0.27850                     0.33868
  Poissons Ratio (z)      =       0.30178       0.34351
-------------------------------------------------------------------------------


  Piezoelectric Strain Matrix: (Units=C/m**2)

-------------------------------------------------------------------------------
  Indices      1         2         3         4         5         6    
-------------------------------------------------------------------------------
       x     0.00000   0.00000   0.00000   0.00000   0.00000   0.00000
       y     0.00000   0.00000   0.00000   0.00000   0.00000   0.00000
       z     0.00000   0.00000   0.00000   0.00000   0.00000   0.00000
-------------------------------------------------------------------------------


  Piezoelectric Stress Matrix: (Units=10**-11 C/N)

-------------------------------------------------------------------------------
  Indices      1         2         3         4         5         6    
-------------------------------------------------------------------------------
       x     0.00000   0.00000   0.00000   0.00000   0.00000   0.00000
       y     0.00000   0.00000   0.00000   0.00000   0.00000   0.00000
       z     0.00000   0.00000   0.00000   0.00000   0.00000   0.00000
-------------------------------------------------------------------------------


  Static dielectric constant tensor : 

-------------------------------------------------------------------------------
              x         y         z
-------------------------------------------------------------------------------
       x     3.95795   0.00000   0.00000
       y     0.00000   4.08496   0.00000
       z     0.00000   0.00000   3.73843
--------------------------------------------------------------------------------

  High frequency dielectric constant tensor : 

-------------------------------------------------------------------------------
              x         y         z
-------------------------------------------------------------------------------
       x     1.59189   0.00000   0.00000
       y     0.00000   1.59360   0.00000
       z     0.00000   0.00000   1.58974
-------------------------------------------------------------------------------

  Static refractive indices : 

-------------------------------------------------------------------------------
    1 =    1.93350      2 =    1.98946      3 =    2.02113
-------------------------------------------------------------------------------

  High frequency refractive indices : 

-------------------------------------------------------------------------------
    1 =    1.26085      2 =    1.26170      3 =    1.26238
-------------------------------------------------------------------------------


  Time to end of optimisation =       0.0775 seconds


  Peak dynamic memory used =       0.73 MB 


  Timing analysis for GULP :

--------------------------------------------------------------------------------
  Task / Subroutine                                          Time (Seconds)
--------------------------------------------------------------------------------
  Calculation of reciprocal space energy and derivatives          0.0027
  Calculation of reciprocal space energy using symmetry           0.0049
  Calculation of real space energy and derivatives                0.0192
  Calculation of real space energy using symmetry                 0.0462
  Symmetry generation of equivalent positions                     0.0004
--------------------------------------------------------------------------------
  Total CPU time                                                  0.0776
--------------------------------------------------------------------------------


  CIF file written as perov.cif                                               


  Job Finished at 09:41.44  6th April      2017                               

