********************************************************************************
*                       GENERAL UTILITY LATTICE PROGRAM                        *
*                                 Julian Gale                                  *
*                      Nanochemistry Research Institute                        *
*                           Department of Chemistry                            *
*                    Curtin University, Western Australia                      *
********************************************************************************
* Version = 4.3.2 * Last modified =  3rd March 2015                            *
********************************************************************************
*  optimise     - perform optimisation run                                     *
*  cell_only    - only optimise unit cell                                      *
*  property     - calculate properties for final geometry                      *
********************************************************************************

  Job Started  at 09:41.43  6th April      2017                               

  Number of CPUs =     1


  Total number of configurations input =   1

********************************************************************************
*  Input for Configuration =   1                                               *
********************************************************************************

  Formula = K4Ca4F12                                                    

  Number of irreducible atoms/shells =       6


  Total number atoms/shells =      32

  Dimensionality = 3               :  Bulk   


  Symmetry :

  Crystal family                   :  Orthorhombic
  Crystal class  (Groth - 1921)    :  Orthorhombic Bipyramidal             

  Space group (centrosymmetric)    :  P N M A         

  Patterson group                  :  P m m m  

  Cartesian lattice vectors (Angstroms) :

        6.223500    0.000000    0.000000
        0.000000    8.710300    0.000000
        0.000000    0.000000    6.118000

  Cell parameters (Angstroms/Degrees):

  a =       6.2235    alpha =  90.0000
  b =       8.7103    beta  =  90.0000
  c =       6.1180    gamma =  90.0000

  Initial cell volume =         331.647921 Angs**3

  Temperature of configuration =  0.000     K 

  Pressure of configuration =         0.000 GPa 

  Fractional coordinates of asymmetric unit :

--------------------------------------------------------------------------------
   No.  Atomic       x           y          z         Charge      Occupancy
        Label      (Frac)      (Frac)     (Frac)        (e)         (Frac)  
--------------------------------------------------------------------------------
      1 K     c    0.042000    0.250000    0.490600     0.80000    1.000000    
      2 Ca    c    0.000000    0.000000    0.000000     1.70000    1.000000    
      3 F     c    0.471500    0.250000    0.581200     0.37800    1.000000    
      4 F     c    0.291600    0.040400    0.206800     0.37800    1.000000    
      5 F     s    0.471500    0.250000    0.581200    -1.21133    1.000000    
      6 F     s    0.291600    0.040400    0.206800    -1.21133    1.000000    
--------------------------------------------------------------------------------



********************************************************************************
*  General input information                                                   *
********************************************************************************

  Species output for all configurations : 

--------------------------------------------------------------------------------
  Species    Type    Atomic    Atomic    Charge       Radii (Angs)     Library
                     Number     Mass       (e)     Cova   Ionic  VDW   Symbol
--------------------------------------------------------------------------------
    K        Core       19      39.10   0.800000   1.330  0.000  2.800          
    Ca       Core       20      40.08   1.700000   0.990  0.000  2.750          
    F        Core        9      19.00   0.378000   0.710  0.000  1.300          
    F        Shell       9       0.00  -1.211333   0.710  0.000  1.300          
--------------------------------------------------------------------------------


  Lattice summation method               =    Ewald          (3-D)
                                         =    Parry          (2-D)
                                         =    Saunders et al (1-D)
  Accuracy factor for lattice sums       =   12.000


  Time limit = Infinity

  Maximum range for interatomic potentials =    100000.000000 Angstroms

  General interatomic potentials :

--------------------------------------------------------------------------------
Atom  Types   Potential         A         B         C         D     Cutoffs(Ang)
  1     2                                                            Min    Max 
--------------------------------------------------------------------------------
K    c K    c Buckingham    0.219E+04 0.192      0.00      0.00     0.000 20.000
Ca   c F    s Buckingham    0.148E+04 0.266      0.00      0.00     0.000 20.000
F    s F    s Buckingham     912.     0.271      13.8      0.00     0.000 20.000
K    c F    s Buckingham    0.352E+04 0.267      0.00      0.00     0.000 20.000
F    c F    s Spring (c-s)   18.8      0.00      0.00      0.00     0.000  0.800
--------------------------------------------------------------------------------

********************************************************************************
*  Output for configuration   1                                                *
********************************************************************************


  Components of energy : 

--------------------------------------------------------------------------------
  Interatomic potentials     =          10.64846977 eV
  Monopole - monopole (real) =         -51.03066689 eV
  Monopole - monopole (recip)=         -62.31396801 eV
  Monopole - monopole (total)=        -113.34463490 eV
--------------------------------------------------------------------------------
  Total lattice energy       =        -102.69616513 eV
--------------------------------------------------------------------------------
  Total lattice energy       =           -9908.6101 kJ/(mole unit cells)
--------------------------------------------------------------------------------


  Number of variables =        3

  Maximum number of calculations  =          1000
  Maximum Hessian update interval =            10
  Maximum step size               =   1.000000000
  Maximum parameter tolerance     =   0.000010000
  Maximum function  tolerance     =   0.000010000
  Maximum gradient  tolerance     =   0.001000000
  Maximum gradient  component     =   0.010000000

  Symmetry constrained optimisation

  Symmetry used for second derivatives

  Cell parameters to be optimised using strains

  Newton-Raphson optimiser to be used

  BFGS hessian update to be used

  Start of bulk optimisation :

  Cycle:      0 Energy:      -102.696165  Gnorm:      2.681564  CPU:    0.008
  ** Hessian calculated **
  Cycle:      1 Energy:      -102.826880  Gnorm:      0.038496  CPU:    0.018
  Cycle:      2 Energy:      -102.826928  Gnorm:      0.007700  CPU:    0.025


  **** Optimisation achieved ****


  Final energy =    -102.82693007 eV
  Final Gnorm  =       0.00026114

  Components of energy : 

--------------------------------------------------------------------------------
  Interatomic potentials     =          12.58286028 eV
  Monopole - monopole (real) =         -51.95819840 eV
  Monopole - monopole (recip)=         -63.45159195 eV
  Monopole - monopole (total)=        -115.40979035 eV
--------------------------------------------------------------------------------
  Total lattice energy       =        -102.82693007 eV
--------------------------------------------------------------------------------
  Total lattice energy       =           -9921.2269 kJ/(mole unit cells)
--------------------------------------------------------------------------------

  Final asymmetric unit coordinates :

--------------------------------------------------------------------------------
   No.  Atomic        x           y           z         Radius
        Label       (Frac)      (Frac)      (Frac)       (Angs) 
--------------------------------------------------------------------------------
     1  K     c     0.042000    0.250000    0.490600    0.000000
     2  Ca    c     0.000000    0.000000    0.000000    0.000000
     3  F     c     0.471500    0.250000    0.581200    0.000000
     4  F     c     0.291600    0.040400    0.206800    0.000000
     5  F     s     0.471500    0.250000    0.581200    0.000000
     6  F     s     0.291600    0.040400    0.206800    0.000000
--------------------------------------------------------------------------------

  Final Cartesian lattice vectors (Angstroms) :

        6.130402    0.000000    0.000000
        0.000000    8.509764    0.000000
        0.000000    0.000000    6.021387


  Final cell parameters and derivatives :

--------------------------------------------------------------------------------
       a            6.130402 Angstrom     dE/de1(xx)     0.000503 eV/strain
       b            8.509764 Angstrom     dE/de2(yy)     0.000337 eV/strain
       c            6.021387 Angstrom     dE/de3(zz)     0.000497 eV/strain
       alpha       90.000000 Degrees      dE/de4(yz)     0.000000 eV/strain
       beta        90.000000 Degrees      dE/de5(xz)     0.000000 eV/strain
       gamma       90.000000 Degrees      dE/de6(xy)     0.000000 eV/strain
--------------------------------------------------------------------------------

  Primitive cell volume =           314.125368 Angs**3

  Density of cell =      2.879561 g/cm**3

  Non-primitive cell volume =           314.125368 Angs**3


  Final internal derivatives :

--------------------------------------------------------------------------------
   No.  Atomic          a             b             c           Radius
        Label          (eV)          (eV)          (eV)        (eV/Angs)
--------------------------------------------------------------------------------
      1 K     c       0.000000      0.000000      0.000000      0.000000
      2 Ca    c       0.000000      0.000000      0.000000      0.000000
      3 F     c       0.000000      0.000000      0.000000      0.000000
      4 F     c       0.000000      0.000000      0.000000      0.000000
      5 F     s       0.000000      0.000000      0.000000      0.000000
      6 F     s       0.000000      0.000000      0.000000      0.000000
--------------------------------------------------------------------------------
  Maximum abs         0.000000      0.000000      0.000000      0.000000
--------------------------------------------------------------------------------


  Born effective charge tensors : 

-------------------------------------------------------------------------------
  Atom             x           y             z
-------------------------------------------------------------------------------
   1 K     x       0.7040      0.0000     -0.0343
           y       0.0000      0.7381      0.0000
           z      -0.0345      0.0000      0.6954
-------------------------------------------------------------------------------
   2 Ca    x       1.5129      0.0084     -0.0166
           y       0.0006      1.4848     -0.0077
           z       0.0036      0.0167      1.5137
-------------------------------------------------------------------------------
   3 F     x      -0.6868      0.0000      0.0194
           y       0.0000     -0.8251      0.0000
           z       0.0283      0.0000     -0.6672
-------------------------------------------------------------------------------
   4 F     x      -0.7650      0.0184     -0.0751
           y       0.0221     -0.6989     -0.0175
           z      -0.0737     -0.0174     -0.7709
-------------------------------------------------------------------------------




  Elastic Constant Matrix: (Units=GPa)

-------------------------------------------------------------------------------
  Indices      1         2         3         4         5         6    
-------------------------------------------------------------------------------
       1     70.2588   30.5348   34.5231    0.0000    0.0000    0.0000
       2     30.5348   75.8312   34.3098    0.0000    0.0000    0.0000
       3     34.5231   34.3098   72.0070    0.0000    0.0000    0.0000
       4      0.0000    0.0000    0.0000   21.9367    0.0000    0.0000
       5      0.0000    0.0000    0.0000    0.0000   19.6664    0.0000
       6      0.0000    0.0000    0.0000    0.0000    0.0000   25.8717
-------------------------------------------------------------------------------


  Elastic Compliance Matrix: (Units=1/GPa)

-------------------------------------------------------------------------------
  Indices      1         2         3         4         5         6    
-------------------------------------------------------------------------------
       1    0.019852 -0.004701 -0.007278  0.000000  0.000000  0.000000
       2   -0.004701  0.017925 -0.006287  0.000000  0.000000  0.000000
       3   -0.007278 -0.006287  0.020373  0.000000  0.000000  0.000000
       4    0.000000  0.000000  0.000000  0.045586  0.000000  0.000000
       5    0.000000  0.000000  0.000000  0.000000  0.050848  0.000000
       6    0.000000  0.000000  0.000000  0.000000  0.000000  0.038652
-------------------------------------------------------------------------------

  Mechanical properties :

-------------------------------------------------------------------------------
  Convention :                    Reuss         Voigt         Hill
-------------------------------------------------------------------------------
  Bulk  Modulus (GPa)     =      46.25853      46.31469      46.28661
  Shear Modulus (GPa)     =      21.09941      21.41024      21.25483
-------------------------------------------------------------------------------
  Velocity S-wave (km/s)  =       2.70690       2.72676       2.71685
  Velocity P-wave (km/s)  =       5.08273       5.09878       5.09076
-------------------------------------------------------------------------------
  Compressibility (1/GPa) =    0.02161764
-------------------------------------------------------------------------------
  Stress axis :                     x             y             z
-------------------------------------------------------------------------------
  Youngs Moduli (GPa)     =      50.37168      55.78929      49.08564
-------------------------------------------------------------------------------
  Poissons Ratio (x)      =                     0.26226       0.35725
  Poissons Ratio (y)      =       0.23679                     0.30859
  Poissons Ratio (z)      =       0.36661       0.35074
-------------------------------------------------------------------------------


  Piezoelectric Strain Matrix: (Units=C/m**2)

-------------------------------------------------------------------------------
  Indices      1         2         3         4         5         6    
-------------------------------------------------------------------------------
       x     0.00000   0.00000   0.00000   0.00000   0.00000   0.00000
       y     0.00000   0.00000   0.00000   0.00000   0.00000   0.00000
       z     0.00000   0.00000   0.00000   0.00000   0.00000   0.00000
-------------------------------------------------------------------------------


  Piezoelectric Stress Matrix: (Units=10**-11 C/N)

-------------------------------------------------------------------------------
  Indices      1         2         3         4         5         6    
-------------------------------------------------------------------------------
       x     0.00000   0.00000   0.00000   0.00000   0.00000   0.00000
       y     0.00000   0.00000   0.00000   0.00000   0.00000   0.00000
       z     0.00000   0.00000   0.00000   0.00000   0.00000   0.00000
-------------------------------------------------------------------------------


  Static dielectric constant tensor : 

-------------------------------------------------------------------------------
              x         y         z
-------------------------------------------------------------------------------
       x     3.61067   0.00000   0.00000
       y     0.00000   3.70286   0.00000
       z     0.00000   0.00000   3.39557
--------------------------------------------------------------------------------

  High frequency dielectric constant tensor : 

-------------------------------------------------------------------------------
              x         y         z
-------------------------------------------------------------------------------
       x     1.52756   0.00000   0.00000
       y     0.00000   1.52884   0.00000
       z     0.00000   0.00000   1.52575
-------------------------------------------------------------------------------

  Static refractive indices : 

-------------------------------------------------------------------------------
    1 =    1.84271      2 =    1.90018      3 =    1.92428
-------------------------------------------------------------------------------

  High frequency refractive indices : 

-------------------------------------------------------------------------------
    1 =    1.23521      2 =    1.23595      3 =    1.23646
-------------------------------------------------------------------------------


  Time to end of optimisation =       0.0550 seconds


  Peak dynamic memory used =       0.73 MB 


  Timing analysis for GULP :

--------------------------------------------------------------------------------
  Task / Subroutine                                          Time (Seconds)
--------------------------------------------------------------------------------
  Calculation of reciprocal space energy and derivatives          0.0026
  Calculation of reciprocal space energy using symmetry           0.0030
  Calculation of real space energy and derivatives                0.0178
  Calculation of real space energy using symmetry                 0.0274
  Symmetry generation of equivalent positions                     0.0004
--------------------------------------------------------------------------------
  Total CPU time                                                  0.0550
--------------------------------------------------------------------------------


  CIF file written as perov.cif                                               


  Job Finished at 09:41.43  6th April      2017                               

