********************************************************************************
*                       GENERAL UTILITY LATTICE PROGRAM                        *
*                                 Julian Gale                                  *
*                      Nanochemistry Research Institute                        *
*                           Department of Chemistry                            *
*                    Curtin University, Western Australia                      *
********************************************************************************
* Version = 4.3.2 * Last modified =  3rd March 2015                            *
********************************************************************************
*  optimise     - perform optimisation run                                     *
*  cell_only    - only optimise unit cell                                      *
*  property     - calculate properties for final geometry                      *
********************************************************************************

  Job Started  at 09:41.40  6th April      2017                               

  Number of CPUs =     1


  Total number of configurations input =   1

********************************************************************************
*  Input for Configuration =   1                                               *
********************************************************************************

  Formula = K4Ca4F12                                                    

  Number of irreducible atoms/shells =       6


  Total number atoms/shells =      32

  Dimensionality = 3               :  Bulk   


  Symmetry :

  Crystal family                   :  Orthorhombic
  Crystal class  (Groth - 1921)    :  Orthorhombic Bipyramidal             

  Space group (centrosymmetric)    :  P N M A         

  Patterson group                  :  P m m m  

  Cartesian lattice vectors (Angstroms) :

        6.223500    0.000000    0.000000
        0.000000    8.710300    0.000000
        0.000000    0.000000    6.118000

  Cell parameters (Angstroms/Degrees):

  a =       6.2235    alpha =  90.0000
  b =       8.7103    beta  =  90.0000
  c =       6.1180    gamma =  90.0000

  Initial cell volume =         331.647921 Angs**3

  Temperature of configuration =  0.000     K 

  Pressure of configuration =         0.000 GPa 

  Fractional coordinates of asymmetric unit :

--------------------------------------------------------------------------------
   No.  Atomic       x           y          z         Charge      Occupancy
        Label      (Frac)      (Frac)     (Frac)        (e)         (Frac)  
--------------------------------------------------------------------------------
      1 K     c    0.042000    0.250000    0.490600     0.50000    1.000000    
      2 Ca    c    0.000000    0.000000    0.000000     1.60000    1.000000    
      3 F     c    0.471500    0.250000    0.581200     0.37800    1.000000    
      4 F     c    0.291600    0.040400    0.206800     0.37800    1.000000    
      5 F     s    0.471500    0.250000    0.581200    -1.07800    1.000000    
      6 F     s    0.291600    0.040400    0.206800    -1.07800    1.000000    
--------------------------------------------------------------------------------



********************************************************************************
*  General input information                                                   *
********************************************************************************

  Species output for all configurations : 

--------------------------------------------------------------------------------
  Species    Type    Atomic    Atomic    Charge       Radii (Angs)     Library
                     Number     Mass       (e)     Cova   Ionic  VDW   Symbol
--------------------------------------------------------------------------------
    K        Core       19      39.10   0.500000   1.330  0.000  2.800          
    Ca       Core       20      40.08   1.600000   0.990  0.000  2.750          
    F        Core        9      19.00   0.378000   0.710  0.000  1.300          
    F        Shell       9       0.00  -1.078000   0.710  0.000  1.300          
--------------------------------------------------------------------------------


  Lattice summation method               =    Ewald          (3-D)
                                         =    Parry          (2-D)
                                         =    Saunders et al (1-D)
  Accuracy factor for lattice sums       =   12.000


  Time limit = Infinity

  Maximum range for interatomic potentials =    100000.000000 Angstroms

  General interatomic potentials :

--------------------------------------------------------------------------------
Atom  Types   Potential         A         B         C         D     Cutoffs(Ang)
  1     2                                                            Min    Max 
--------------------------------------------------------------------------------
K    c K    c Buckingham    0.219E+04 0.192      0.00      0.00     0.000 20.000
Ca   c F    s Buckingham    0.148E+04 0.266      0.00      0.00     0.000 20.000
F    s F    s Buckingham     912.     0.271      13.8      0.00     0.000 20.000
K    c F    s Buckingham    0.352E+04 0.267      0.00      0.00     0.000 20.000
F    c F    s Spring (c-s)   14.9      0.00      0.00      0.00     0.000  0.800
--------------------------------------------------------------------------------

********************************************************************************
*  Output for configuration   1                                                *
********************************************************************************


  Components of energy : 

--------------------------------------------------------------------------------
  Interatomic potentials     =          10.64846977 eV
  Monopole - monopole (real) =         -38.48642786 eV
  Monopole - monopole (recip)=         -47.47197063 eV
  Monopole - monopole (total)=         -85.95839850 eV
--------------------------------------------------------------------------------
  Total lattice energy       =         -75.30992873 eV
--------------------------------------------------------------------------------
  Total lattice energy       =           -7266.2569 kJ/(mole unit cells)
--------------------------------------------------------------------------------


  Number of variables =        3

  Maximum number of calculations  =          1000
  Maximum Hessian update interval =            10
  Maximum step size               =   1.000000000
  Maximum parameter tolerance     =   0.000010000
  Maximum function  tolerance     =   0.000010000
  Maximum gradient  tolerance     =   0.001000000
  Maximum gradient  component     =   0.010000000

  Symmetry constrained optimisation

  Symmetry used for second derivatives

  Cell parameters to be optimised using strains

  Newton-Raphson optimiser to be used

  BFGS hessian update to be used

  Start of bulk optimisation :

  Cycle:      0 Energy:       -75.309929  Gnorm:      2.605858  CPU:    0.009
  ** Hessian calculated **
  Cycle:      1 Energy:       -75.440328  Gnorm:      0.045553  CPU:    0.018
  Cycle:      2 Energy:       -75.440381  Gnorm:      0.004845  CPU:    0.027


  **** Optimisation achieved ****


  Final energy =     -75.44038157 eV
  Final Gnorm  =       0.00019806

  Components of energy : 

--------------------------------------------------------------------------------
  Interatomic potentials     =           8.84797775 eV
  Monopole - monopole (real) =         -37.73708664 eV
  Monopole - monopole (recip)=         -46.55127267 eV
  Monopole - monopole (total)=         -84.28835931 eV
--------------------------------------------------------------------------------
  Total lattice energy       =         -75.44038157 eV
--------------------------------------------------------------------------------
  Total lattice energy       =           -7278.8436 kJ/(mole unit cells)
--------------------------------------------------------------------------------

  Final asymmetric unit coordinates :

--------------------------------------------------------------------------------
   No.  Atomic        x           y           z         Radius
        Label       (Frac)      (Frac)      (Frac)       (Angs) 
--------------------------------------------------------------------------------
     1  K     c     0.042000    0.250000    0.490600    0.000000
     2  Ca    c     0.000000    0.000000    0.000000    0.000000
     3  F     c     0.471500    0.250000    0.581200    0.000000
     4  F     c     0.291600    0.040400    0.206800    0.000000
     5  F     s     0.471500    0.250000    0.581200    0.000000
     6  F     s     0.291600    0.040400    0.206800    0.000000
--------------------------------------------------------------------------------

  Final Cartesian lattice vectors (Angstroms) :

        6.363052    0.000000    0.000000
        0.000000    8.837897    0.000000
        0.000000    0.000000    6.254244


  Final cell parameters and derivatives :

--------------------------------------------------------------------------------
       a            6.363052 Angstrom     dE/de1(xx)     0.000174 eV/strain
       b            8.837897 Angstrom     dE/de2(yy)     0.000537 eV/strain
       c            6.254244 Angstrom     dE/de3(zz)     0.000186 eV/strain
       alpha       90.000000 Degrees      dE/de4(yz)     0.000000 eV/strain
       beta        90.000000 Degrees      dE/de5(xz)     0.000000 eV/strain
       gamma       90.000000 Degrees      dE/de6(xy)     0.000000 eV/strain
--------------------------------------------------------------------------------

  Primitive cell volume =           351.713651 Angs**3

  Density of cell =      2.571817 g/cm**3

  Non-primitive cell volume =           351.713651 Angs**3


  Final internal derivatives :

--------------------------------------------------------------------------------
   No.  Atomic          a             b             c           Radius
        Label          (eV)          (eV)          (eV)        (eV/Angs)
--------------------------------------------------------------------------------
      1 K     c       0.000000      0.000000      0.000000      0.000000
      2 Ca    c       0.000000      0.000000      0.000000      0.000000
      3 F     c       0.000000      0.000000      0.000000      0.000000
      4 F     c       0.000000      0.000000      0.000000      0.000000
      5 F     s       0.000000      0.000000      0.000000      0.000000
      6 F     s       0.000000      0.000000      0.000000      0.000000
--------------------------------------------------------------------------------
  Maximum abs         0.000000      0.000000      0.000000      0.000000
--------------------------------------------------------------------------------


  Born effective charge tensors : 

-------------------------------------------------------------------------------
  Atom             x           y             z
-------------------------------------------------------------------------------
   1 K     x       0.4007      0.0000     -0.0331
           y       0.0000      0.4286      0.0000
           z      -0.0307      0.0000      0.3936
-------------------------------------------------------------------------------
   2 Ca    x       1.4552      0.0061     -0.0176
           y      -0.0015      1.4312     -0.0094
           z       0.0049      0.0170      1.4563
-------------------------------------------------------------------------------
   3 F     x      -0.5598      0.0000      0.0201
           y       0.0000     -0.7217      0.0000
           z       0.0280      0.0000     -0.5425
-------------------------------------------------------------------------------
   4 F     x      -0.6480      0.0163     -0.0871
           y       0.0186     -0.5691     -0.0119
           z      -0.0859     -0.0114     -0.6537
-------------------------------------------------------------------------------




  Elastic Constant Matrix: (Units=GPa)

-------------------------------------------------------------------------------
  Indices      1         2         3         4         5         6    
-------------------------------------------------------------------------------
       1     46.5101   20.1552   26.1625    0.0000    0.0000    0.0000
       2     20.1552   52.4227   23.5509    0.0000    0.0000    0.0000
       3     26.1625   23.5509   45.7857    0.0000    0.0000    0.0000
       4      0.0000    0.0000    0.0000   12.7254    0.0000    0.0000
       5      0.0000    0.0000    0.0000    0.0000   13.7620    0.0000
       6      0.0000    0.0000    0.0000    0.0000    0.0000   15.7445
-------------------------------------------------------------------------------


  Elastic Compliance Matrix: (Units=1/GPa)

-------------------------------------------------------------------------------
  Indices      1         2         3         4         5         6    
-------------------------------------------------------------------------------
       1    0.032843 -0.005457 -0.015960  0.000000  0.000000  0.000000
       2   -0.005457  0.025715 -0.010109  0.000000  0.000000  0.000000
       3   -0.015960 -0.010109  0.036160  0.000000  0.000000  0.000000
       4    0.000000  0.000000  0.000000  0.078583  0.000000  0.000000
       5    0.000000  0.000000  0.000000  0.000000  0.072664  0.000000
       6    0.000000  0.000000  0.000000  0.000000  0.000000  0.063514
-------------------------------------------------------------------------------

  Mechanical properties :

-------------------------------------------------------------------------------
  Convention :                    Reuss         Voigt         Hill
-------------------------------------------------------------------------------
  Bulk  Modulus (GPa)     =      31.57904      31.60622      31.59263
  Shear Modulus (GPa)     =      13.05185      13.43639      13.24412
-------------------------------------------------------------------------------
  Velocity S-wave (km/s)  =       2.25277       2.28571       2.26930
  Velocity P-wave (km/s)  =       4.36411       4.38810       4.37612
-------------------------------------------------------------------------------
  Compressibility (1/GPa) =    0.03166657
-------------------------------------------------------------------------------
  Stress axis :                     x             y             z
-------------------------------------------------------------------------------
  Youngs Moduli (GPa)     =      30.44756      38.88729      27.65466
-------------------------------------------------------------------------------
  Poissons Ratio (x)      =                     0.21222       0.44137
  Poissons Ratio (y)      =       0.16617                     0.27956
  Poissons Ratio (z)      =       0.48594       0.39311
-------------------------------------------------------------------------------


  Piezoelectric Strain Matrix: (Units=C/m**2)

-------------------------------------------------------------------------------
  Indices      1         2         3         4         5         6    
-------------------------------------------------------------------------------
       x     0.00000   0.00000   0.00000   0.00000   0.00000   0.00000
       y     0.00000   0.00000   0.00000   0.00000   0.00000   0.00000
       z     0.00000   0.00000   0.00000   0.00000   0.00000   0.00000
-------------------------------------------------------------------------------


  Piezoelectric Stress Matrix: (Units=10**-11 C/N)

-------------------------------------------------------------------------------
  Indices      1         2         3         4         5         6    
-------------------------------------------------------------------------------
       x     0.00000   0.00000   0.00000   0.00000   0.00000   0.00000
       y     0.00000   0.00000   0.00000   0.00000   0.00000   0.00000
       z     0.00000   0.00000   0.00000   0.00000   0.00000   0.00000
-------------------------------------------------------------------------------


  Static dielectric constant tensor : 

-------------------------------------------------------------------------------
              x         y         z
-------------------------------------------------------------------------------
       x     3.24867   0.00000   0.00000
       y     0.00000   3.17860   0.00000
       z     0.00000   0.00000   3.07071
--------------------------------------------------------------------------------

  High frequency dielectric constant tensor : 

-------------------------------------------------------------------------------
              x         y         z
-------------------------------------------------------------------------------
       x     1.47267   0.00000   0.00000
       y     0.00000   1.47357   0.00000
       z     0.00000   0.00000   1.47119
-------------------------------------------------------------------------------

  Static refractive indices : 

-------------------------------------------------------------------------------
    1 =    1.75235      2 =    1.78286      3 =    1.80241
-------------------------------------------------------------------------------

  High frequency refractive indices : 

-------------------------------------------------------------------------------
    1 =    1.21293      2 =    1.21354      3 =    1.21391
-------------------------------------------------------------------------------


  Time to end of optimisation =       0.0558 seconds


  Peak dynamic memory used =       0.73 MB 


  Timing analysis for GULP :

--------------------------------------------------------------------------------
  Task / Subroutine                                          Time (Seconds)
--------------------------------------------------------------------------------
  Calculation of reciprocal space energy and derivatives          0.0025
  Calculation of reciprocal space energy using symmetry           0.0032
  Calculation of real space energy and derivatives                0.0169
  Calculation of real space energy using symmetry                 0.0288
  Symmetry generation of equivalent positions                     0.0004
--------------------------------------------------------------------------------
  Total CPU time                                                  0.0558
--------------------------------------------------------------------------------


  CIF file written as perov.cif                                               


  Job Finished at 09:41.40  6th April      2017                               

