********************************************************************************
*                       GENERAL UTILITY LATTICE PROGRAM                        *
*                                 Julian Gale                                  *
*                      Nanochemistry Research Institute                        *
*                           Department of Chemistry                            *
*                    Curtin University, Western Australia                      *
********************************************************************************
* Version = 4.3.2 * Last modified =  3rd March 2015                            *
********************************************************************************
*  optimise     - perform optimisation run                                     *
*  cell_only    - only optimise unit cell                                      *
*  property     - calculate properties for final geometry                      *
********************************************************************************

  Job Started  at 09:41.43  6th April      2017                               

  Number of CPUs =     1


  Total number of configurations input =   1

********************************************************************************
*  Input for Configuration =   1                                               *
********************************************************************************

  Formula = K4Ca4F12                                                    

  Number of irreducible atoms/shells =       6


  Total number atoms/shells =      32

  Dimensionality = 3               :  Bulk   


  Symmetry :

  Crystal family                   :  Orthorhombic
  Crystal class  (Groth - 1921)    :  Orthorhombic Bipyramidal             

  Space group (centrosymmetric)    :  P N M A         

  Patterson group                  :  P m m m  

  Cartesian lattice vectors (Angstroms) :

        6.223500    0.000000    0.000000
        0.000000    8.710300    0.000000
        0.000000    0.000000    6.118000

  Cell parameters (Angstroms/Degrees):

  a =       6.2235    alpha =  90.0000
  b =       8.7103    beta  =  90.0000
  c =       6.1180    gamma =  90.0000

  Initial cell volume =         331.647921 Angs**3

  Temperature of configuration =  0.000     K 

  Pressure of configuration =         0.000 GPa 

  Fractional coordinates of asymmetric unit :

--------------------------------------------------------------------------------
   No.  Atomic       x           y          z         Charge      Occupancy
        Label      (Frac)      (Frac)     (Frac)        (e)         (Frac)  
--------------------------------------------------------------------------------
      1 K     c    0.042000    0.250000    0.490600     0.80000    1.000000    
      2 Ca    c    0.000000    0.000000    0.000000     2.10000    1.000000    
      3 F     c    0.471500    0.250000    0.581200     0.37800    1.000000    
      4 F     c    0.291600    0.040400    0.206800     0.37800    1.000000    
      5 F     s    0.471500    0.250000    0.581200    -1.34467    1.000000    
      6 F     s    0.291600    0.040400    0.206800    -1.34467    1.000000    
--------------------------------------------------------------------------------



********************************************************************************
*  General input information                                                   *
********************************************************************************

  Species output for all configurations : 

--------------------------------------------------------------------------------
  Species    Type    Atomic    Atomic    Charge       Radii (Angs)     Library
                     Number     Mass       (e)     Cova   Ionic  VDW   Symbol
--------------------------------------------------------------------------------
    K        Core       19      39.10   0.800000   1.330  0.000  2.800          
    Ca       Core       20      40.08   2.100000   0.990  0.000  2.750          
    F        Core        9      19.00   0.378000   0.710  0.000  1.300          
    F        Shell       9       0.00  -1.344667   0.710  0.000  1.300          
--------------------------------------------------------------------------------


  Lattice summation method               =    Ewald          (3-D)
                                         =    Parry          (2-D)
                                         =    Saunders et al (1-D)
  Accuracy factor for lattice sums       =   12.000


  Time limit = Infinity

  Maximum range for interatomic potentials =    100000.000000 Angstroms

  General interatomic potentials :

--------------------------------------------------------------------------------
Atom  Types   Potential         A         B         C         D     Cutoffs(Ang)
  1     2                                                            Min    Max 
--------------------------------------------------------------------------------
K    c K    c Buckingham    0.219E+04 0.192      0.00      0.00     0.000 20.000
Ca   c F    s Buckingham    0.148E+04 0.266      0.00      0.00     0.000 20.000
F    s F    s Buckingham     912.     0.271      13.8      0.00     0.000 20.000
K    c F    s Buckingham    0.352E+04 0.267      0.00      0.00     0.000 20.000
F    c F    s Spring (c-s)   23.2      0.00      0.00      0.00     0.000  0.800
--------------------------------------------------------------------------------

********************************************************************************
*  Output for configuration   1                                                *
********************************************************************************


  Components of energy : 

--------------------------------------------------------------------------------
  Interatomic potentials     =          10.64846977 eV
  Monopole - monopole (real) =         -71.13944038 eV
  Monopole - monopole (recip)=         -87.14664861 eV
  Monopole - monopole (total)=        -158.28608900 eV
--------------------------------------------------------------------------------
  Total lattice energy       =        -147.63761923 eV
--------------------------------------------------------------------------------
  Total lattice energy       =          -14244.7734 kJ/(mole unit cells)
--------------------------------------------------------------------------------


  Number of variables =        3

  Maximum number of calculations  =          1000
  Maximum Hessian update interval =            10
  Maximum step size               =   1.000000000
  Maximum parameter tolerance     =   0.000010000
  Maximum function  tolerance     =   0.000010000
  Maximum gradient  tolerance     =   0.001000000
  Maximum gradient  component     =   0.010000000

  Symmetry constrained optimisation

  Symmetry used for second derivatives

  Cell parameters to be optimised using strains

  Newton-Raphson optimiser to be used

  BFGS hessian update to be used

  Start of bulk optimisation :

  Cycle:      0 Energy:      -147.637619  Gnorm:     11.326015  CPU:    0.009
  ** Hessian calculated **
  Cycle:      1 Energy:      -149.664585  Gnorm:      2.758613  CPU:    0.017
  Cycle:      2 Energy:      -149.738498  Gnorm:      0.873597  CPU:    0.025
  Cycle:      3 Energy:      -149.749631  Gnorm:      0.272557  CPU:    0.033
  Cycle:      4 Energy:      -149.750748  Gnorm:      0.001409  CPU:    0.042


  **** Optimisation achieved ****


  Final energy =    -149.75074849 eV
  Final Gnorm  =       0.00006645

  Components of energy : 

--------------------------------------------------------------------------------
  Interatomic potentials     =          19.30939638 eV
  Monopole - monopole (real) =         -75.97839733 eV
  Monopole - monopole (recip)=         -93.08174755 eV
  Monopole - monopole (total)=        -169.06014487 eV
--------------------------------------------------------------------------------
  Total lattice energy       =        -149.75074849 eV
--------------------------------------------------------------------------------
  Total lattice energy       =          -14448.6581 kJ/(mole unit cells)
--------------------------------------------------------------------------------

  Final asymmetric unit coordinates :

--------------------------------------------------------------------------------
   No.  Atomic        x           y           z         Radius
        Label       (Frac)      (Frac)      (Frac)       (Angs) 
--------------------------------------------------------------------------------
     1  K     c     0.042000    0.250000    0.490600    0.000000
     2  Ca    c     0.000000    0.000000    0.000000    0.000000
     3  F     c     0.471500    0.250000    0.581200    0.000000
     4  F     c     0.291600    0.040400    0.206800    0.000000
     5  F     s     0.471500    0.250000    0.581200    0.000000
     6  F     s     0.291600    0.040400    0.206800    0.000000
--------------------------------------------------------------------------------

  Final Cartesian lattice vectors (Angstroms) :

        5.845477    0.000000    0.000000
        0.000000    8.109986    0.000000
        0.000000    0.000000    5.741048


  Final cell parameters and derivatives :

--------------------------------------------------------------------------------
       a            5.845477 Angstrom     dE/de1(xx)    -0.000077 eV/strain
       b            8.109986 Angstrom     dE/de2(yy)    -0.000183 eV/strain
       c            5.741048 Angstrom     dE/de3(zz)    -0.000015 eV/strain
       alpha       90.000000 Degrees      dE/de4(yz)     0.000000 eV/strain
       beta        90.000000 Degrees      dE/de5(xz)     0.000000 eV/strain
       gamma       90.000000 Degrees      dE/de6(xy)     0.000000 eV/strain
--------------------------------------------------------------------------------

  Primitive cell volume =           272.164349 Angs**3

  Density of cell =      3.323518 g/cm**3

  Non-primitive cell volume =           272.164349 Angs**3


  Final internal derivatives :

--------------------------------------------------------------------------------
   No.  Atomic          a             b             c           Radius
        Label          (eV)          (eV)          (eV)        (eV/Angs)
--------------------------------------------------------------------------------
      1 K     c       0.000000      0.000000      0.000000      0.000000
      2 Ca    c       0.000000      0.000000      0.000000      0.000000
      3 F     c       0.000000      0.000000      0.000000      0.000000
      4 F     c       0.000000      0.000000      0.000000      0.000000
      5 F     s       0.000000      0.000000      0.000000      0.000000
      6 F     s       0.000000      0.000000      0.000000      0.000000
--------------------------------------------------------------------------------
  Maximum abs         0.000000      0.000000      0.000000      0.000000
--------------------------------------------------------------------------------


  Born effective charge tensors : 

-------------------------------------------------------------------------------
  Atom             x           y             z
-------------------------------------------------------------------------------
   1 K     x       0.6316      0.0000     -0.0535
           y       0.0000      0.6775      0.0000
           z      -0.0496      0.0000      0.6217
-------------------------------------------------------------------------------
   2 Ca    x       1.9259      0.0113     -0.0375
           y      -0.0054      1.8871     -0.0259
           z       0.0139      0.0362      1.9274
-------------------------------------------------------------------------------
   3 F     x      -0.7518      0.0000      0.0284
           y       0.0000     -1.0326      0.0000
           z       0.0460      0.0000     -0.7280
-------------------------------------------------------------------------------
   4 F     x      -0.9029      0.0238     -0.1490
           y       0.0282     -0.7660     -0.0171
           z      -0.1467     -0.0160     -0.9105
-------------------------------------------------------------------------------




  Elastic Constant Matrix: (Units=GPa)

-------------------------------------------------------------------------------
  Indices      1         2         3         4         5         6    
-------------------------------------------------------------------------------
       1    111.1735   50.4430   52.0586    0.0000    0.0000    0.0000
       2     50.4430  115.6512   58.0722    0.0000    0.0000    0.0000
       3     52.0586   58.0722  115.2987    0.0000    0.0000    0.0000
       4      0.0000    0.0000    0.0000   37.2582    0.0000    0.0000
       5      0.0000    0.0000    0.0000    0.0000   26.9951    0.0000
       6      0.0000    0.0000    0.0000    0.0000    0.0000   44.0852
-------------------------------------------------------------------------------


  Elastic Compliance Matrix: (Units=1/GPa)

-------------------------------------------------------------------------------
  Indices      1         2         3         4         5         6    
-------------------------------------------------------------------------------
       1    0.012364 -0.003466 -0.003837  0.000000  0.000000  0.000000
       2   -0.003466  0.012546 -0.004754  0.000000  0.000000  0.000000
       3   -0.003837 -0.004754  0.012800  0.000000  0.000000  0.000000
       4    0.000000  0.000000  0.000000  0.026840  0.000000  0.000000
       5    0.000000  0.000000  0.000000  0.000000  0.037044  0.000000
       6    0.000000  0.000000  0.000000  0.000000  0.000000  0.022683
-------------------------------------------------------------------------------

  Mechanical properties :

-------------------------------------------------------------------------------
  Convention :                    Reuss         Voigt         Hill
-------------------------------------------------------------------------------
  Bulk  Modulus (GPa)     =      73.55066      73.69678      73.62372
  Shear Modulus (GPa)     =      32.69637      33.77100      33.23369
-------------------------------------------------------------------------------
  Velocity S-wave (km/s)  =       3.13654       3.18767       3.16221
  Velocity P-wave (km/s)  =       5.93696       5.97684       5.95694
-------------------------------------------------------------------------------
  Compressibility (1/GPa) =    0.01359607
-------------------------------------------------------------------------------
  Stress axis :                     x             y             z
-------------------------------------------------------------------------------
  Youngs Moduli (GPa)     =      80.87764      79.70938      78.12660
-------------------------------------------------------------------------------
  Poissons Ratio (x)      =                     0.27630       0.29975
  Poissons Ratio (y)      =       0.28035                     0.37139
  Poissons Ratio (z)      =       0.31031       0.37891
-------------------------------------------------------------------------------


  Piezoelectric Strain Matrix: (Units=C/m**2)

-------------------------------------------------------------------------------
  Indices      1         2         3         4         5         6    
-------------------------------------------------------------------------------
       x     0.00000   0.00000   0.00000   0.00000   0.00000   0.00000
       y     0.00000   0.00000   0.00000   0.00000   0.00000   0.00000
       z     0.00000   0.00000   0.00000   0.00000   0.00000   0.00000
-------------------------------------------------------------------------------


  Piezoelectric Stress Matrix: (Units=10**-11 C/N)

-------------------------------------------------------------------------------
  Indices      1         2         3         4         5         6    
-------------------------------------------------------------------------------
       x     0.00000   0.00000   0.00000   0.00000   0.00000   0.00000
       y     0.00000   0.00000   0.00000   0.00000   0.00000   0.00000
       z     0.00000   0.00000   0.00000   0.00000   0.00000   0.00000
-------------------------------------------------------------------------------


  Static dielectric constant tensor : 

-------------------------------------------------------------------------------
              x         y         z
-------------------------------------------------------------------------------
       x     3.99890   0.00000   0.00000
       y     0.00000   3.83849   0.00000
       z     0.00000   0.00000   3.80920
--------------------------------------------------------------------------------

  High frequency dielectric constant tensor : 

-------------------------------------------------------------------------------
              x         y         z
-------------------------------------------------------------------------------
       x     1.60631   0.00000   0.00000
       y     0.00000   1.60786   0.00000
       z     0.00000   0.00000   1.60424
-------------------------------------------------------------------------------

  Static refractive indices : 

-------------------------------------------------------------------------------
    1 =    1.95172      2 =    1.95921      3 =    1.99973
-------------------------------------------------------------------------------

  High frequency refractive indices : 

-------------------------------------------------------------------------------
    1 =    1.26659      2 =    1.26740      3 =    1.26801
-------------------------------------------------------------------------------


  Time to end of optimisation =       0.0736 seconds


  Peak dynamic memory used =       0.73 MB 


  Timing analysis for GULP :

--------------------------------------------------------------------------------
  Task / Subroutine                                          Time (Seconds)
--------------------------------------------------------------------------------
  Calculation of reciprocal space energy and derivatives          0.0026
  Calculation of reciprocal space energy using symmetry           0.0043
  Calculation of real space energy and derivatives                0.0189
  Calculation of real space energy using symmetry                 0.0434
  Symmetry generation of equivalent positions                     0.0004
--------------------------------------------------------------------------------
  Total CPU time                                                  0.0737
--------------------------------------------------------------------------------


  CIF file written as perov.cif                                               


  Job Finished at 09:41.43  6th April      2017                               

