********************************************************************************
*                       GENERAL UTILITY LATTICE PROGRAM                        *
*                                 Julian Gale                                  *
*                      Nanochemistry Research Institute                        *
*                           Department of Chemistry                            *
*                    Curtin University, Western Australia                      *
********************************************************************************
* Version = 4.3.2 * Last modified =  3rd March 2015                            *
********************************************************************************
*  optimise     - perform optimisation run                                     *
*  cell_only    - only optimise unit cell                                      *
*  property     - calculate properties for final geometry                      *
********************************************************************************

  Job Started  at 09:41.43  6th April      2017                               

  Number of CPUs =     1


  Total number of configurations input =   1

********************************************************************************
*  Input for Configuration =   1                                               *
********************************************************************************

  Formula = K4Ca4F12                                                    

  Number of irreducible atoms/shells =       6


  Total number atoms/shells =      32

  Dimensionality = 3               :  Bulk   


  Symmetry :

  Crystal family                   :  Orthorhombic
  Crystal class  (Groth - 1921)    :  Orthorhombic Bipyramidal             

  Space group (centrosymmetric)    :  P N M A         

  Patterson group                  :  P m m m  

  Cartesian lattice vectors (Angstroms) :

        6.223500    0.000000    0.000000
        0.000000    8.710300    0.000000
        0.000000    0.000000    6.118000

  Cell parameters (Angstroms/Degrees):

  a =       6.2235    alpha =  90.0000
  b =       8.7103    beta  =  90.0000
  c =       6.1180    gamma =  90.0000

  Initial cell volume =         331.647921 Angs**3

  Temperature of configuration =  0.000     K 

  Pressure of configuration =         0.000 GPa 

  Fractional coordinates of asymmetric unit :

--------------------------------------------------------------------------------
   No.  Atomic       x           y          z         Charge      Occupancy
        Label      (Frac)      (Frac)     (Frac)        (e)         (Frac)  
--------------------------------------------------------------------------------
      1 K     c    0.042000    0.250000    0.490600     0.80000    1.000000    
      2 Ca    c    0.000000    0.000000    0.000000     2.40000    1.000000    
      3 F     c    0.471500    0.250000    0.581200     0.37800    1.000000    
      4 F     c    0.291600    0.040400    0.206800     0.37800    1.000000    
      5 F     s    0.471500    0.250000    0.581200    -1.44467    1.000000    
      6 F     s    0.291600    0.040400    0.206800    -1.44467    1.000000    
--------------------------------------------------------------------------------



********************************************************************************
*  General input information                                                   *
********************************************************************************

  Species output for all configurations : 

--------------------------------------------------------------------------------
  Species    Type    Atomic    Atomic    Charge       Radii (Angs)     Library
                     Number     Mass       (e)     Cova   Ionic  VDW   Symbol
--------------------------------------------------------------------------------
    K        Core       19      39.10   0.800000   1.330  0.000  2.800          
    Ca       Core       20      40.08   2.400000   0.990  0.000  2.750          
    F        Core        9      19.00   0.378000   0.710  0.000  1.300          
    F        Shell       9       0.00  -1.444667   0.710  0.000  1.300          
--------------------------------------------------------------------------------


  Lattice summation method               =    Ewald          (3-D)
                                         =    Parry          (2-D)
                                         =    Saunders et al (1-D)
  Accuracy factor for lattice sums       =   12.000


  Time limit = Infinity

  Maximum range for interatomic potentials =    100000.000000 Angstroms

  General interatomic potentials :

--------------------------------------------------------------------------------
Atom  Types   Potential         A         B         C         D     Cutoffs(Ang)
  1     2                                                            Min    Max 
--------------------------------------------------------------------------------
K    c K    c Buckingham    0.219E+04 0.192      0.00      0.00     0.000 20.000
Ca   c F    s Buckingham    0.148E+04 0.266      0.00      0.00     0.000 20.000
F    s F    s Buckingham     912.     0.271      13.8      0.00     0.000 20.000
K    c F    s Buckingham    0.352E+04 0.267      0.00      0.00     0.000 20.000
F    c F    s Spring (c-s)   26.8      0.00      0.00      0.00     0.000  0.800
--------------------------------------------------------------------------------

********************************************************************************
*  Output for configuration   1                                                *
********************************************************************************


  Components of energy : 

--------------------------------------------------------------------------------
  Interatomic potentials     =          10.64846977 eV
  Monopole - monopole (real) =         -88.48278072 eV
  Monopole - monopole (recip)=        -108.86277393 eV
  Monopole - monopole (total)=        -197.34555465 eV
--------------------------------------------------------------------------------
  Total lattice energy       =        -186.69708488 eV
--------------------------------------------------------------------------------
  Total lattice energy       =          -18013.4148 kJ/(mole unit cells)
--------------------------------------------------------------------------------


  Number of variables =        3

  Maximum number of calculations  =          1000
  Maximum Hessian update interval =            10
  Maximum step size               =   1.000000000
  Maximum parameter tolerance     =   0.000010000
  Maximum function  tolerance     =   0.000010000
  Maximum gradient  tolerance     =   0.001000000
  Maximum gradient  component     =   0.010000000

  Symmetry constrained optimisation

  Symmetry used for second derivatives

  Cell parameters to be optimised using strains

  Newton-Raphson optimiser to be used

  BFGS hessian update to be used

  Start of bulk optimisation :

  Cycle:      0 Energy:      -186.697085  Gnorm:     18.843284  CPU:    0.009
  ** Hessian calculated **
  Cycle:      1 Energy:      -191.398929  Gnorm:      8.372827  CPU:    0.017
  Cycle:      2 Energy:      -192.183174  Gnorm:      0.492753  CPU:    0.026
  Cycle:      3 Energy:      -192.187371  Gnorm:      0.197182  CPU:    0.036
  Cycle:      4 Energy:      -192.187740  Gnorm:      0.042323  CPU:    0.044
  Cycle:      5 Energy:      -192.187757  Gnorm:      0.000195  CPU:    0.053


  **** Optimisation achieved ****


  Final energy =    -192.18775710 eV
  Final Gnorm  =       0.00004474

  Components of energy : 

--------------------------------------------------------------------------------
  Interatomic potentials     =          25.67580956 eV
  Monopole - monopole (real) =         -97.67815778 eV
  Monopole - monopole (recip)=        -120.18540888 eV
  Monopole - monopole (total)=        -217.86356666 eV
--------------------------------------------------------------------------------
  Total lattice energy       =        -192.18775710 eV
--------------------------------------------------------------------------------
  Total lattice energy       =          -18543.1807 kJ/(mole unit cells)
--------------------------------------------------------------------------------

  Final asymmetric unit coordinates :

--------------------------------------------------------------------------------
   No.  Atomic        x           y           z         Radius
        Label       (Frac)      (Frac)      (Frac)       (Angs) 
--------------------------------------------------------------------------------
     1  K     c     0.042000    0.250000    0.490600    0.000000
     2  Ca    c     0.000000    0.000000    0.000000    0.000000
     3  F     c     0.471500    0.250000    0.581200    0.000000
     4  F     c     0.291600    0.040400    0.206800    0.000000
     5  F     s     0.471500    0.250000    0.581200    0.000000
     6  F     s     0.291600    0.040400    0.206800    0.000000
--------------------------------------------------------------------------------

  Final Cartesian lattice vectors (Angstroms) :

        5.656211    0.000000    0.000000
        0.000000    7.844791    0.000000
        0.000000    0.000000    5.554535


  Final cell parameters and derivatives :

--------------------------------------------------------------------------------
       a            5.656211 Angstrom     dE/de1(xx)     0.000097 eV/strain
       b            7.844791 Angstrom     dE/de2(yy)     0.000011 eV/strain
       c            5.554535 Angstrom     dE/de3(zz)    -0.000092 eV/strain
       alpha       90.000000 Degrees      dE/de4(yz)     0.000000 eV/strain
       beta        90.000000 Degrees      dE/de5(xz)     0.000000 eV/strain
       gamma       90.000000 Degrees      dE/de6(xy)     0.000000 eV/strain
--------------------------------------------------------------------------------

  Primitive cell volume =           246.464679 Angs**3

  Density of cell =      3.670072 g/cm**3

  Non-primitive cell volume =           246.464679 Angs**3


  Final internal derivatives :

--------------------------------------------------------------------------------
   No.  Atomic          a             b             c           Radius
        Label          (eV)          (eV)          (eV)        (eV/Angs)
--------------------------------------------------------------------------------
      1 K     c       0.000000      0.000000      0.000000      0.000000
      2 Ca    c       0.000000      0.000000      0.000000      0.000000
      3 F     c       0.000000      0.000000      0.000000      0.000000
      4 F     c       0.000000      0.000000      0.000000      0.000000
      5 F     s       0.000000      0.000000      0.000000      0.000000
      6 F     s       0.000000      0.000000      0.000000      0.000000
--------------------------------------------------------------------------------
  Maximum abs         0.000000      0.000000      0.000000      0.000000
--------------------------------------------------------------------------------


  Born effective charge tensors : 

-------------------------------------------------------------------------------
  Atom             x           y             z
-------------------------------------------------------------------------------
   1 K     x       0.5697      0.0000     -0.0710
           y       0.0000      0.6255      0.0000
           z      -0.0615      0.0000      0.5596
-------------------------------------------------------------------------------
   2 Ca    x       2.2634      0.0141     -0.0623
           y      -0.0136      2.2151     -0.0493
           z       0.0278      0.0602      2.2651
-------------------------------------------------------------------------------
   3 F     x      -0.7977      0.0000      0.0342
           y       0.0000     -1.2135      0.0000
           z       0.0608      0.0000     -0.7717
-------------------------------------------------------------------------------
   4 F     x      -1.0177      0.0281     -0.2187
           y       0.0330     -0.8135     -0.0159
           z      -0.2154     -0.0136     -1.0265
-------------------------------------------------------------------------------




  Elastic Constant Matrix: (Units=GPa)

-------------------------------------------------------------------------------
  Indices      1         2         3         4         5         6    
-------------------------------------------------------------------------------
       1    150.8306   70.6366   68.6412    0.0000    0.0000    0.0000
       2     70.6366  152.4673   82.7553    0.0000    0.0000    0.0000
       3     68.6412   82.7553  157.2313    0.0000    0.0000    0.0000
       4      0.0000    0.0000    0.0000   52.7593    0.0000    0.0000
       5      0.0000    0.0000    0.0000    0.0000   32.8772    0.0000
       6      0.0000    0.0000    0.0000    0.0000    0.0000   62.6260
-------------------------------------------------------------------------------


  Elastic Compliance Matrix: (Units=1/GPa)

-------------------------------------------------------------------------------
  Indices      1         2         3         4         5         6    
-------------------------------------------------------------------------------
       1    0.009097 -0.002882 -0.002454  0.000000  0.000000  0.000000
       2   -0.002882  0.010095 -0.004055  0.000000  0.000000  0.000000
       3   -0.002454 -0.004055  0.009566  0.000000  0.000000  0.000000
       4    0.000000  0.000000  0.000000  0.018954  0.000000  0.000000
       5    0.000000  0.000000  0.000000  0.000000  0.030416  0.000000
       6    0.000000  0.000000  0.000000  0.000000  0.000000  0.015968
-------------------------------------------------------------------------------

  Mechanical properties :

-------------------------------------------------------------------------------
  Convention :                    Reuss         Voigt         Hill
-------------------------------------------------------------------------------
  Bulk  Modulus (GPa)     =     100.25663     100.51061     100.38362
  Shear Modulus (GPa)     =      43.02797      45.55224      44.29010
-------------------------------------------------------------------------------
  Velocity S-wave (km/s)  =       3.42403       3.52304       3.47389
  Velocity P-wave (km/s)  =       6.55358       6.62840       6.59109
-------------------------------------------------------------------------------
  Compressibility (1/GPa) =    0.00997440
-------------------------------------------------------------------------------
  Stress axis :                     x             y             z
-------------------------------------------------------------------------------
  Youngs Moduli (GPa)     =     109.93019      99.05798     104.53959
-------------------------------------------------------------------------------
  Poissons Ratio (x)      =                     0.28552       0.25656
  Poissons Ratio (y)      =       0.31685                     0.42391
  Poissons Ratio (z)      =       0.26979       0.40168
-------------------------------------------------------------------------------


  Piezoelectric Strain Matrix: (Units=C/m**2)

-------------------------------------------------------------------------------
  Indices      1         2         3         4         5         6    
-------------------------------------------------------------------------------
       x     0.00000   0.00000   0.00000   0.00000   0.00000   0.00000
       y     0.00000   0.00000   0.00000   0.00000   0.00000   0.00000
       z     0.00000   0.00000   0.00000   0.00000   0.00000   0.00000
-------------------------------------------------------------------------------


  Piezoelectric Stress Matrix: (Units=10**-11 C/N)

-------------------------------------------------------------------------------
  Indices      1         2         3         4         5         6    
-------------------------------------------------------------------------------
       x     0.00000   0.00000   0.00000   0.00000   0.00000   0.00000
       y     0.00000   0.00000   0.00000   0.00000   0.00000   0.00000
       z     0.00000   0.00000   0.00000   0.00000   0.00000   0.00000
-------------------------------------------------------------------------------


  Static dielectric constant tensor : 

-------------------------------------------------------------------------------
              x         y         z
-------------------------------------------------------------------------------
       x     4.75614   0.00000   0.00000
       y     0.00000   4.31599   0.00000
       z     0.00000   0.00000   4.53737
--------------------------------------------------------------------------------

  High frequency dielectric constant tensor : 

-------------------------------------------------------------------------------
              x         y         z
-------------------------------------------------------------------------------
       x     1.67143   0.00000   0.00000
       y     0.00000   1.67314   0.00000
       z     0.00000   0.00000   1.66923
-------------------------------------------------------------------------------

  Static refractive indices : 

-------------------------------------------------------------------------------
    1 =    2.07750      2 =    2.13011      3 =    2.18086
-------------------------------------------------------------------------------

  High frequency refractive indices : 

-------------------------------------------------------------------------------
    1 =    1.29199      2 =    1.29284      3 =    1.29350
-------------------------------------------------------------------------------


  Time to end of optimisation =       0.0865 seconds


  Peak dynamic memory used =       0.73 MB 


  Timing analysis for GULP :

--------------------------------------------------------------------------------
  Task / Subroutine                                          Time (Seconds)
--------------------------------------------------------------------------------
  Calculation of reciprocal space energy and derivatives          0.0027
  Calculation of reciprocal space energy using symmetry           0.0051
  Calculation of real space energy and derivatives                0.0208
  Calculation of real space energy using symmetry                 0.0532
  Symmetry generation of equivalent positions                     0.0004
--------------------------------------------------------------------------------
  Total CPU time                                                  0.0865
--------------------------------------------------------------------------------


  CIF file written as perov.cif                                               


  Job Finished at 09:41.43  6th April      2017                               

