********************************************************************************
*                       GENERAL UTILITY LATTICE PROGRAM                        *
*                                 Julian Gale                                  *
*                      Nanochemistry Research Institute                        *
*                           Department of Chemistry                            *
*                    Curtin University, Western Australia                      *
********************************************************************************
* Version = 4.3.2 * Last modified =  3rd March 2015                            *
********************************************************************************
*  optimise     - perform optimisation run                                     *
*  cell_only    - only optimise unit cell                                      *
*  property     - calculate properties for final geometry                      *
********************************************************************************

  Job Started  at 09:41.42  6th April      2017                               

  Number of CPUs =     1


  Total number of configurations input =   1

********************************************************************************
*  Input for Configuration =   1                                               *
********************************************************************************

  Formula = K4Ca4F12                                                    

  Number of irreducible atoms/shells =       6


  Total number atoms/shells =      32

  Dimensionality = 3               :  Bulk   


  Symmetry :

  Crystal family                   :  Orthorhombic
  Crystal class  (Groth - 1921)    :  Orthorhombic Bipyramidal             

  Space group (centrosymmetric)    :  P N M A         

  Patterson group                  :  P m m m  

  Cartesian lattice vectors (Angstroms) :

        6.223500    0.000000    0.000000
        0.000000    8.710300    0.000000
        0.000000    0.000000    6.118000

  Cell parameters (Angstroms/Degrees):

  a =       6.2235    alpha =  90.0000
  b =       8.7103    beta  =  90.0000
  c =       6.1180    gamma =  90.0000

  Initial cell volume =         331.647921 Angs**3

  Temperature of configuration =  0.000     K 

  Pressure of configuration =         0.000 GPa 

  Fractional coordinates of asymmetric unit :

--------------------------------------------------------------------------------
   No.  Atomic       x           y          z         Charge      Occupancy
        Label      (Frac)      (Frac)     (Frac)        (e)         (Frac)  
--------------------------------------------------------------------------------
      1 K     c    0.042000    0.250000    0.490600     0.70000    1.000000    
      2 Ca    c    0.000000    0.000000    0.000000     2.50000    1.000000    
      3 F     c    0.471500    0.250000    0.581200     0.37800    1.000000    
      4 F     c    0.291600    0.040400    0.206800     0.37800    1.000000    
      5 F     s    0.471500    0.250000    0.581200    -1.44467    1.000000    
      6 F     s    0.291600    0.040400    0.206800    -1.44467    1.000000    
--------------------------------------------------------------------------------



********************************************************************************
*  General input information                                                   *
********************************************************************************

  Species output for all configurations : 

--------------------------------------------------------------------------------
  Species    Type    Atomic    Atomic    Charge       Radii (Angs)     Library
                     Number     Mass       (e)     Cova   Ionic  VDW   Symbol
--------------------------------------------------------------------------------
    K        Core       19      39.10   0.700000   1.330  0.000  2.800          
    Ca       Core       20      40.08   2.500000   0.990  0.000  2.750          
    F        Core        9      19.00   0.378000   0.710  0.000  1.300          
    F        Shell       9       0.00  -1.444667   0.710  0.000  1.300          
--------------------------------------------------------------------------------


  Lattice summation method               =    Ewald          (3-D)
                                         =    Parry          (2-D)
                                         =    Saunders et al (1-D)
  Accuracy factor for lattice sums       =   12.000


  Time limit = Infinity

  Maximum range for interatomic potentials =    100000.000000 Angstroms

  General interatomic potentials :

--------------------------------------------------------------------------------
Atom  Types   Potential         A         B         C         D     Cutoffs(Ang)
  1     2                                                            Min    Max 
--------------------------------------------------------------------------------
K    c K    c Buckingham    0.219E+04 0.192      0.00      0.00     0.000 20.000
Ca   c F    s Buckingham    0.148E+04 0.266      0.00      0.00     0.000 20.000
F    s F    s Buckingham     912.     0.271      13.8      0.00     0.000 20.000
K    c F    s Buckingham    0.352E+04 0.267      0.00      0.00     0.000 20.000
F    c F    s Spring (c-s)   26.8      0.00      0.00      0.00     0.000  0.800
--------------------------------------------------------------------------------

********************************************************************************
*  Output for configuration   1                                                *
********************************************************************************


  Components of energy : 

--------------------------------------------------------------------------------
  Interatomic potentials     =          10.64846977 eV
  Monopole - monopole (real) =         -90.83265203 eV
  Monopole - monopole (recip)=        -112.58486433 eV
  Monopole - monopole (total)=        -203.41751636 eV
--------------------------------------------------------------------------------
  Total lattice energy       =        -192.76904659 eV
--------------------------------------------------------------------------------
  Total lattice energy       =          -18599.2663 kJ/(mole unit cells)
--------------------------------------------------------------------------------


  Number of variables =        3

  Maximum number of calculations  =          1000
  Maximum Hessian update interval =            10
  Maximum step size               =   1.000000000
  Maximum parameter tolerance     =   0.000010000
  Maximum function  tolerance     =   0.000010000
  Maximum gradient  tolerance     =   0.001000000
  Maximum gradient  component     =   0.010000000

  Symmetry constrained optimisation

  Symmetry used for second derivatives

  Cell parameters to be optimised using strains

  Newton-Raphson optimiser to be used

  BFGS hessian update to be used

  Start of bulk optimisation :

  Cycle:      0 Energy:      -192.769047  Gnorm:     20.011830  CPU:    0.008
  ** Hessian calculated **
  Cycle:      1 Energy:      -197.875118  Gnorm:      9.614253  CPU:    0.016
  Cycle:      2 Energy:      -198.899056  Gnorm:      0.755701  CPU:    0.025
  Cycle:      3 Energy:      -198.904990  Gnorm:      0.443310  CPU:    0.035
  Cycle:      4 Energy:      -198.906841  Gnorm:      0.003948  CPU:    0.044


  **** Optimisation achieved ****


  Final energy =    -198.90684102 eV
  Final Gnorm  =       0.00023952

  Components of energy : 

--------------------------------------------------------------------------------
  Interatomic potentials     =          26.70509335 eV
  Monopole - monopole (real) =        -100.73896571 eV
  Monopole - monopole (recip)=        -124.87296866 eV
  Monopole - monopole (total)=        -225.61193437 eV
--------------------------------------------------------------------------------
  Total lattice energy       =        -198.90684102 eV
--------------------------------------------------------------------------------
  Total lattice energy       =          -19191.4696 kJ/(mole unit cells)
--------------------------------------------------------------------------------

  Final asymmetric unit coordinates :

--------------------------------------------------------------------------------
   No.  Atomic        x           y           z         Radius
        Label       (Frac)      (Frac)      (Frac)       (Angs) 
--------------------------------------------------------------------------------
     1  K     c     0.042000    0.250000    0.490600    0.000000
     2  Ca    c     0.000000    0.000000    0.000000    0.000000
     3  F     c     0.471500    0.250000    0.581200    0.000000
     4  F     c     0.291600    0.040400    0.206800    0.000000
     5  F     s     0.471500    0.250000    0.581200    0.000000
     6  F     s     0.291600    0.040400    0.206800    0.000000
--------------------------------------------------------------------------------

  Final Cartesian lattice vectors (Angstroms) :

        5.629856    0.000000    0.000000
        0.000000    7.808195    0.000000
        0.000000    0.000000    5.529139


  Final cell parameters and derivatives :

--------------------------------------------------------------------------------
       a            5.629856 Angstrom     dE/de1(xx)    -0.000595 eV/strain
       b            7.808195 Angstrom     dE/de2(yy)     0.000008 eV/strain
       c            5.529139 Angstrom     dE/de3(zz)     0.000403 eV/strain
       alpha       90.000000 Degrees      dE/de4(yz)     0.000000 eV/strain
       beta        90.000000 Degrees      dE/de5(xz)     0.000000 eV/strain
       gamma       90.000000 Degrees      dE/de6(xy)     0.000000 eV/strain
--------------------------------------------------------------------------------

  Primitive cell volume =           243.055475 Angs**3

  Density of cell =      3.721551 g/cm**3

  Non-primitive cell volume =           243.055475 Angs**3


  Final internal derivatives :

--------------------------------------------------------------------------------
   No.  Atomic          a             b             c           Radius
        Label          (eV)          (eV)          (eV)        (eV/Angs)
--------------------------------------------------------------------------------
      1 K     c       0.000000      0.000000      0.000000      0.000000
      2 Ca    c       0.000000      0.000000      0.000000      0.000000
      3 F     c       0.000000      0.000000      0.000000      0.000000
      4 F     c       0.000000      0.000000      0.000000      0.000000
      5 F     s       0.000000      0.000000      0.000000      0.000000
      6 F     s       0.000000      0.000000      0.000000      0.000000
--------------------------------------------------------------------------------
  Maximum abs         0.000000      0.000000      0.000000      0.000000
--------------------------------------------------------------------------------


  Born effective charge tensors : 

-------------------------------------------------------------------------------
  Atom             x           y             z
-------------------------------------------------------------------------------
   1 K     x       0.4418      0.0000     -0.0805
           y       0.0000      0.5001      0.0000
           z      -0.0657      0.0000      0.4326
-------------------------------------------------------------------------------
   2 Ca    x       2.3950      0.0155     -0.0757
           y      -0.0185      2.3434     -0.0620
           z       0.0357      0.0731      2.3968
-------------------------------------------------------------------------------
   3 F     x      -0.7768      0.0000      0.0370
           y       0.0000     -1.2592      0.0000
           z       0.0668      0.0000     -0.7502
-------------------------------------------------------------------------------
   4 F     x      -1.0300      0.0297     -0.2535
           y       0.0343     -0.7921     -0.0134
           z      -0.2497     -0.0104     -1.0396
-------------------------------------------------------------------------------




  Elastic Constant Matrix: (Units=GPa)

-------------------------------------------------------------------------------
  Indices      1         2         3         4         5         6    
-------------------------------------------------------------------------------
       1    154.7109   73.6256   74.1879    0.0000    0.0000    0.0000
       2     73.6256  157.3860   88.2022    0.0000    0.0000    0.0000
       3     74.1879   88.2022  159.2863    0.0000    0.0000    0.0000
       4      0.0000    0.0000    0.0000   53.0266    0.0000    0.0000
       5      0.0000    0.0000    0.0000    0.0000   33.2141    0.0000
       6      0.0000    0.0000    0.0000    0.0000    0.0000   64.1254
-------------------------------------------------------------------------------


  Elastic Compliance Matrix: (Units=1/GPa)

-------------------------------------------------------------------------------
  Indices      1         2         3         4         5         6    
-------------------------------------------------------------------------------
       1    0.009058 -0.002716 -0.002715  0.000000  0.000000  0.000000
       2   -0.002716  0.010027 -0.004287  0.000000  0.000000  0.000000
       3   -0.002715 -0.004287  0.009917  0.000000  0.000000  0.000000
       4    0.000000  0.000000  0.000000  0.018858  0.000000  0.000000
       5    0.000000  0.000000  0.000000  0.000000  0.030108  0.000000
       6    0.000000  0.000000  0.000000  0.000000  0.000000  0.015594
-------------------------------------------------------------------------------

  Mechanical properties :

-------------------------------------------------------------------------------
  Convention :                    Reuss         Voigt         Hill
-------------------------------------------------------------------------------
  Bulk  Modulus (GPa)     =     104.54513     104.82387     104.68450
  Shear Modulus (GPa)     =      43.03411      45.76439      44.39925
-------------------------------------------------------------------------------
  Velocity S-wave (km/s)  =       3.40051       3.50673       3.45403
  Velocity P-wave (km/s)  =       6.59620       6.67554       6.63599
-------------------------------------------------------------------------------
  Compressibility (1/GPa) =    0.00956525
-------------------------------------------------------------------------------
  Stress axis :                     x             y             z
-------------------------------------------------------------------------------
  Youngs Moduli (GPa)     =     110.39969      99.73050     100.84160
-------------------------------------------------------------------------------
  Poissons Ratio (x)      =                     0.27085       0.27378
  Poissons Ratio (y)      =       0.29983                     0.43235
  Poissons Ratio (z)      =       0.29973       0.42758
-------------------------------------------------------------------------------


  Piezoelectric Strain Matrix: (Units=C/m**2)

-------------------------------------------------------------------------------
  Indices      1         2         3         4         5         6    
-------------------------------------------------------------------------------
       x     0.00000   0.00000   0.00000   0.00000   0.00000   0.00000
       y     0.00000   0.00000   0.00000   0.00000   0.00000   0.00000
       z     0.00000   0.00000   0.00000   0.00000   0.00000   0.00000
-------------------------------------------------------------------------------


  Piezoelectric Stress Matrix: (Units=10**-11 C/N)

-------------------------------------------------------------------------------
  Indices      1         2         3         4         5         6    
-------------------------------------------------------------------------------
       x     0.00000   0.00000   0.00000   0.00000   0.00000   0.00000
       y     0.00000   0.00000   0.00000   0.00000   0.00000   0.00000
       z     0.00000   0.00000   0.00000   0.00000   0.00000   0.00000
-------------------------------------------------------------------------------


  Static dielectric constant tensor : 

-------------------------------------------------------------------------------
              x         y         z
-------------------------------------------------------------------------------
       x     5.20600   0.00000   0.00000
       y     0.00000   4.53605   0.00000
       z     0.00000   0.00000   4.95735
--------------------------------------------------------------------------------

  High frequency dielectric constant tensor : 

-------------------------------------------------------------------------------
              x         y         z
-------------------------------------------------------------------------------
       x     1.68245   0.00000   0.00000
       y     0.00000   1.68404   0.00000
       z     0.00000   0.00000   1.68036
-------------------------------------------------------------------------------

  Static refractive indices : 

-------------------------------------------------------------------------------
    1 =    2.12980      2 =    2.22651      3 =    2.28166
-------------------------------------------------------------------------------

  High frequency refractive indices : 

-------------------------------------------------------------------------------
    1 =    1.29629      2 =    1.29709      3 =    1.29771
-------------------------------------------------------------------------------


  Time to end of optimisation =       0.0768 seconds


  Peak dynamic memory used =       0.73 MB 


  Timing analysis for GULP :

--------------------------------------------------------------------------------
  Task / Subroutine                                          Time (Seconds)
--------------------------------------------------------------------------------
  Calculation of reciprocal space energy and derivatives          0.0027
  Calculation of reciprocal space energy using symmetry           0.0044
  Calculation of real space energy and derivatives                0.0203
  Calculation of real space energy using symmetry                 0.0451
  Symmetry generation of equivalent positions                     0.0004
--------------------------------------------------------------------------------
  Total CPU time                                                  0.0768
--------------------------------------------------------------------------------


  CIF file written as perov.cif                                               


  Job Finished at 09:41.42  6th April      2017                               

