********************************************************************************
*                       GENERAL UTILITY LATTICE PROGRAM                        *
*                                 Julian Gale                                  *
*                      Nanochemistry Research Institute                        *
*                           Department of Chemistry                            *
*                    Curtin University, Western Australia                      *
********************************************************************************
* Version = 4.3.2 * Last modified =  3rd March 2015                            *
********************************************************************************
*  optimise     - perform optimisation run                                     *
*  cell_only    - only optimise unit cell                                      *
*  property     - calculate properties for final geometry                      *
********************************************************************************

  Job Started  at 09:41.41  6th April      2017                               

  Number of CPUs =     1


  Total number of configurations input =   1

********************************************************************************
*  Input for Configuration =   1                                               *
********************************************************************************

  Formula = K4Ca4F12                                                    

  Number of irreducible atoms/shells =       6


  Total number atoms/shells =      32

  Dimensionality = 3               :  Bulk   


  Symmetry :

  Crystal family                   :  Orthorhombic
  Crystal class  (Groth - 1921)    :  Orthorhombic Bipyramidal             

  Space group (centrosymmetric)    :  P N M A         

  Patterson group                  :  P m m m  

  Cartesian lattice vectors (Angstroms) :

        6.223500    0.000000    0.000000
        0.000000    8.710300    0.000000
        0.000000    0.000000    6.118000

  Cell parameters (Angstroms/Degrees):

  a =       6.2235    alpha =  90.0000
  b =       8.7103    beta  =  90.0000
  c =       6.1180    gamma =  90.0000

  Initial cell volume =         331.647921 Angs**3

  Temperature of configuration =  0.000     K 

  Pressure of configuration =         0.000 GPa 

  Fractional coordinates of asymmetric unit :

--------------------------------------------------------------------------------
   No.  Atomic       x           y          z         Charge      Occupancy
        Label      (Frac)      (Frac)     (Frac)        (e)         (Frac)  
--------------------------------------------------------------------------------
      1 K     c    0.042000    0.250000    0.490600     0.60000    1.000000    
      2 Ca    c    0.000000    0.000000    0.000000     1.60000    1.000000    
      3 F     c    0.471500    0.250000    0.581200     0.37800    1.000000    
      4 F     c    0.291600    0.040400    0.206800     0.37800    1.000000    
      5 F     s    0.471500    0.250000    0.581200    -1.11133    1.000000    
      6 F     s    0.291600    0.040400    0.206800    -1.11133    1.000000    
--------------------------------------------------------------------------------



********************************************************************************
*  General input information                                                   *
********************************************************************************

  Species output for all configurations : 

--------------------------------------------------------------------------------
  Species    Type    Atomic    Atomic    Charge       Radii (Angs)     Library
                     Number     Mass       (e)     Cova   Ionic  VDW   Symbol
--------------------------------------------------------------------------------
    K        Core       19      39.10   0.600000   1.330  0.000  2.800          
    Ca       Core       20      40.08   1.600000   0.990  0.000  2.750          
    F        Core        9      19.00   0.378000   0.710  0.000  1.300          
    F        Shell       9       0.00  -1.111333   0.710  0.000  1.300          
--------------------------------------------------------------------------------


  Lattice summation method               =    Ewald          (3-D)
                                         =    Parry          (2-D)
                                         =    Saunders et al (1-D)
  Accuracy factor for lattice sums       =   12.000


  Time limit = Infinity

  Maximum range for interatomic potentials =    100000.000000 Angstroms

  General interatomic potentials :

--------------------------------------------------------------------------------
Atom  Types   Potential         A         B         C         D     Cutoffs(Ang)
  1     2                                                            Min    Max 
--------------------------------------------------------------------------------
K    c K    c Buckingham    0.219E+04 0.192      0.00      0.00     0.000 20.000
Ca   c F    s Buckingham    0.148E+04 0.266      0.00      0.00     0.000 20.000
F    s F    s Buckingham     912.     0.271      13.8      0.00     0.000 20.000
K    c F    s Buckingham    0.352E+04 0.267      0.00      0.00     0.000 20.000
F    c F    s Spring (c-s)   15.8      0.00      0.00      0.00     0.000  0.800
--------------------------------------------------------------------------------

********************************************************************************
*  Output for configuration   1                                                *
********************************************************************************


  Components of energy : 

--------------------------------------------------------------------------------
  Interatomic potentials     =          10.64846977 eV
  Monopole - monopole (real) =         -41.04604255 eV
  Monopole - monopole (recip)=         -50.30363780 eV
  Monopole - monopole (total)=         -91.34968035 eV
--------------------------------------------------------------------------------
  Total lattice energy       =         -80.70121058 eV
--------------------------------------------------------------------------------
  Total lattice energy       =           -7786.4332 kJ/(mole unit cells)
--------------------------------------------------------------------------------


  Number of variables =        3

  Maximum number of calculations  =          1000
  Maximum Hessian update interval =            10
  Maximum step size               =   1.000000000
  Maximum parameter tolerance     =   0.000010000
  Maximum function  tolerance     =   0.000010000
  Maximum gradient  tolerance     =   0.001000000
  Maximum gradient  component     =   0.010000000

  Symmetry constrained optimisation

  Symmetry used for second derivatives

  Cell parameters to be optimised using strains

  Newton-Raphson optimiser to be used

  BFGS hessian update to be used

  Start of bulk optimisation :

  Cycle:      0 Energy:       -80.701211  Gnorm:      1.573032  CPU:    0.009
  ** Hessian calculated **
  Cycle:      1 Energy:       -80.748676  Gnorm:      0.017455  CPU:    0.018


  **** Optimisation achieved ****


  Final energy =     -80.74868594 eV
  Final Gnorm  =       0.00028051

  Components of energy : 

--------------------------------------------------------------------------------
  Interatomic potentials     =           9.55887404 eV
  Monopole - monopole (real) =         -40.57604018 eV
  Monopole - monopole (recip)=         -49.73151980 eV
  Monopole - monopole (total)=         -90.30755998 eV
--------------------------------------------------------------------------------
  Total lattice energy       =         -80.74868594 eV
--------------------------------------------------------------------------------
  Total lattice energy       =           -7791.0138 kJ/(mole unit cells)
--------------------------------------------------------------------------------

  Final asymmetric unit coordinates :

--------------------------------------------------------------------------------
   No.  Atomic        x           y           z         Radius
        Label       (Frac)      (Frac)      (Frac)       (Angs) 
--------------------------------------------------------------------------------
     1  K     c     0.042000    0.250000    0.490600    0.000000
     2  Ca    c     0.000000    0.000000    0.000000    0.000000
     3  F     c     0.471500    0.250000    0.581200    0.000000
     4  F     c     0.291600    0.040400    0.206800    0.000000
     5  F     s     0.471500    0.250000    0.581200    0.000000
     6  F     s     0.291600    0.040400    0.206800    0.000000
--------------------------------------------------------------------------------

  Final Cartesian lattice vectors (Angstroms) :

        6.312192    0.000000    0.000000
        0.000000    8.765992    0.000000
        0.000000    0.000000    6.202900


  Final cell parameters and derivatives :

--------------------------------------------------------------------------------
       a            6.312192 Angstrom     dE/de1(xx)     0.000270 eV/strain
       b            8.765992 Angstrom     dE/de2(yy)     0.000739 eV/strain
       c            6.202900 Angstrom     dE/de3(zz)     0.000299 eV/strain
       alpha       90.000000 Degrees      dE/de4(yz)     0.000000 eV/strain
       beta        90.000000 Degrees      dE/de5(xz)     0.000000 eV/strain
       gamma       90.000000 Degrees      dE/de6(xy)     0.000000 eV/strain
--------------------------------------------------------------------------------

  Primitive cell volume =           343.222742 Angs**3

  Density of cell =      2.635441 g/cm**3

  Non-primitive cell volume =           343.222742 Angs**3


  Final internal derivatives :

--------------------------------------------------------------------------------
   No.  Atomic          a             b             c           Radius
        Label          (eV)          (eV)          (eV)        (eV/Angs)
--------------------------------------------------------------------------------
      1 K     c       0.000000      0.000000      0.000000      0.000000
      2 Ca    c       0.000000      0.000000      0.000000      0.000000
      3 F     c       0.000000      0.000000      0.000000      0.000000
      4 F     c       0.000000      0.000000      0.000000      0.000000
      5 F     s       0.000000      0.000000      0.000000      0.000000
      6 F     s       0.000000      0.000000      0.000000      0.000000
--------------------------------------------------------------------------------
  Maximum abs         0.000000      0.000000      0.000000      0.000000
--------------------------------------------------------------------------------


  Born effective charge tensors : 

-------------------------------------------------------------------------------
  Atom             x           y             z
-------------------------------------------------------------------------------
   1 K     x       0.5069      0.0000     -0.0319
           y       0.0000      0.5359      0.0000
           z      -0.0307      0.0000      0.4995
-------------------------------------------------------------------------------
   2 Ca    x       1.4427      0.0066     -0.0161
           y      -0.0005      1.4181     -0.0079
           z       0.0040      0.0158      1.4436
-------------------------------------------------------------------------------
   3 F     x      -0.5963      0.0000      0.0191
           y       0.0000     -0.7414      0.0000
           z       0.0269      0.0000     -0.5787
-------------------------------------------------------------------------------
   4 F     x      -0.6766      0.0165     -0.0785
           y       0.0191     -0.6063     -0.0136
           z      -0.0773     -0.0133     -0.6822
-------------------------------------------------------------------------------




  Elastic Constant Matrix: (Units=GPa)

-------------------------------------------------------------------------------
  Indices      1         2         3         4         5         6    
-------------------------------------------------------------------------------
       1     51.2628   22.1893   27.3945    0.0000    0.0000    0.0000
       2     22.1893   56.8087   25.4543    0.0000    0.0000    0.0000
       3     27.3945   25.4543   51.2209    0.0000    0.0000    0.0000
       4      0.0000    0.0000    0.0000   14.7298    0.0000    0.0000
       5      0.0000    0.0000    0.0000    0.0000   14.9165    0.0000
       6      0.0000    0.0000    0.0000    0.0000    0.0000   17.8460
-------------------------------------------------------------------------------


  Elastic Compliance Matrix: (Units=1/GPa)

-------------------------------------------------------------------------------
  Indices      1         2         3         4         5         6    
-------------------------------------------------------------------------------
       1    0.028616 -0.005557 -0.012543  0.000000  0.000000  0.000000
       2   -0.005557  0.023725 -0.008818  0.000000  0.000000  0.000000
       3   -0.012543 -0.008818  0.030614  0.000000  0.000000  0.000000
       4    0.000000  0.000000  0.000000  0.067889  0.000000  0.000000
       5    0.000000  0.000000  0.000000  0.000000  0.067040  0.000000
       6    0.000000  0.000000  0.000000  0.000000  0.000000  0.056035
-------------------------------------------------------------------------------

  Mechanical properties :

-------------------------------------------------------------------------------
  Convention :                    Reuss         Voigt         Hill
-------------------------------------------------------------------------------
  Bulk  Modulus (GPa)     =      34.34287      34.37430      34.35858
  Shear Modulus (GPa)     =      14.81658      15.11541      14.96599
-------------------------------------------------------------------------------
  Velocity S-wave (km/s)  =       2.37109       2.39488       2.38301
  Velocity P-wave (km/s)  =       4.53070       4.54866       4.53969
-------------------------------------------------------------------------------
  Compressibility (1/GPa) =    0.02911813
-------------------------------------------------------------------------------
  Stress axis :                     x             y             z
-------------------------------------------------------------------------------
  Youngs Moduli (GPa)     =      34.94602      42.15047      32.66512
-------------------------------------------------------------------------------
  Poissons Ratio (x)      =                     0.23423       0.40972
  Poissons Ratio (y)      =       0.19420                     0.28804
  Poissons Ratio (z)      =       0.43832       0.37168
-------------------------------------------------------------------------------


  Piezoelectric Strain Matrix: (Units=C/m**2)

-------------------------------------------------------------------------------
  Indices      1         2         3         4         5         6    
-------------------------------------------------------------------------------
       x     0.00000   0.00000   0.00000   0.00000   0.00000   0.00000
       y     0.00000   0.00000   0.00000   0.00000   0.00000   0.00000
       z     0.00000   0.00000   0.00000   0.00000   0.00000   0.00000
-------------------------------------------------------------------------------


  Piezoelectric Stress Matrix: (Units=10**-11 C/N)

-------------------------------------------------------------------------------
  Indices      1         2         3         4         5         6    
-------------------------------------------------------------------------------
       x     0.00000   0.00000   0.00000   0.00000   0.00000   0.00000
       y     0.00000   0.00000   0.00000   0.00000   0.00000   0.00000
       z     0.00000   0.00000   0.00000   0.00000   0.00000   0.00000
-------------------------------------------------------------------------------


  Static dielectric constant tensor : 

-------------------------------------------------------------------------------
              x         y         z
-------------------------------------------------------------------------------
       x     3.33491   0.00000   0.00000
       y     0.00000   3.32566   0.00000
       z     0.00000   0.00000   3.13917
--------------------------------------------------------------------------------

  High frequency dielectric constant tensor : 

-------------------------------------------------------------------------------
              x         y         z
-------------------------------------------------------------------------------
       x     1.48430   0.00000   0.00000
       y     0.00000   1.48529   0.00000
       z     0.00000   0.00000   1.48274
-------------------------------------------------------------------------------

  Static refractive indices : 

-------------------------------------------------------------------------------
    1 =    1.77177      2 =    1.82364      3 =    1.82617
-------------------------------------------------------------------------------

  High frequency refractive indices : 

-------------------------------------------------------------------------------
    1 =    1.21768      2 =    1.21832      3 =    1.21873
-------------------------------------------------------------------------------


  Time to end of optimisation =       0.0469 seconds


  Peak dynamic memory used =       0.73 MB 


  Timing analysis for GULP :

--------------------------------------------------------------------------------
  Task / Subroutine                                          Time (Seconds)
--------------------------------------------------------------------------------
  Calculation of reciprocal space energy and derivatives          0.0025
  Calculation of reciprocal space energy using symmetry           0.0024
  Calculation of real space energy and derivatives                0.0172
  Calculation of real space energy using symmetry                 0.0204
  Symmetry generation of equivalent positions                     0.0004
--------------------------------------------------------------------------------
  Total CPU time                                                  0.0470
--------------------------------------------------------------------------------


  CIF file written as perov.cif                                               


  Job Finished at 09:41.41  6th April      2017                               

