********************************************************************************
*                       GENERAL UTILITY LATTICE PROGRAM                        *
*                                 Julian Gale                                  *
*                      Nanochemistry Research Institute                        *
*                           Department of Chemistry                            *
*                    Curtin University, Western Australia                      *
********************************************************************************
* Version = 4.3.2 * Last modified =  3rd March 2015                            *
********************************************************************************
*  optimise     - perform optimisation run                                     *
*  cell_only    - only optimise unit cell                                      *
*  property     - calculate properties for final geometry                      *
********************************************************************************

  Job Started  at 09:41.40  6th April      2017                               

  Number of CPUs =     1


  Total number of configurations input =   1

********************************************************************************
*  Input for Configuration =   1                                               *
********************************************************************************

  Formula = K4Ca4F12                                                    

  Number of irreducible atoms/shells =       6


  Total number atoms/shells =      32

  Dimensionality = 3               :  Bulk   


  Symmetry :

  Crystal family                   :  Orthorhombic
  Crystal class  (Groth - 1921)    :  Orthorhombic Bipyramidal             

  Space group (centrosymmetric)    :  P N M A         

  Patterson group                  :  P m m m  

  Cartesian lattice vectors (Angstroms) :

        6.223500    0.000000    0.000000
        0.000000    8.710300    0.000000
        0.000000    0.000000    6.118000

  Cell parameters (Angstroms/Degrees):

  a =       6.2235    alpha =  90.0000
  b =       8.7103    beta  =  90.0000
  c =       6.1180    gamma =  90.0000

  Initial cell volume =         331.647921 Angs**3

  Temperature of configuration =  0.000     K 

  Pressure of configuration =         0.000 GPa 

  Fractional coordinates of asymmetric unit :

--------------------------------------------------------------------------------
   No.  Atomic       x           y          z         Charge      Occupancy
        Label      (Frac)      (Frac)     (Frac)        (e)         (Frac)  
--------------------------------------------------------------------------------
      1 K     c    0.042000    0.250000    0.490600     0.50000    1.000000    
      2 Ca    c    0.000000    0.000000    0.000000     2.00000    1.000000    
      3 F     c    0.471500    0.250000    0.581200     0.37800    1.000000    
      4 F     c    0.291600    0.040400    0.206800     0.37800    1.000000    
      5 F     s    0.471500    0.250000    0.581200    -1.21133    1.000000    
      6 F     s    0.291600    0.040400    0.206800    -1.21133    1.000000    
--------------------------------------------------------------------------------



********************************************************************************
*  General input information                                                   *
********************************************************************************

  Species output for all configurations : 

--------------------------------------------------------------------------------
  Species    Type    Atomic    Atomic    Charge       Radii (Angs)     Library
                     Number     Mass       (e)     Cova   Ionic  VDW   Symbol
--------------------------------------------------------------------------------
    K        Core       19      39.10   0.500000   1.330  0.000  2.800          
    Ca       Core       20      40.08   2.000000   0.990  0.000  2.750          
    F        Core        9      19.00   0.378000   0.710  0.000  1.300          
    F        Shell       9       0.00  -1.211333   0.710  0.000  1.300          
--------------------------------------------------------------------------------


  Lattice summation method               =    Ewald          (3-D)
                                         =    Parry          (2-D)
                                         =    Saunders et al (1-D)
  Accuracy factor for lattice sums       =   12.000


  Time limit = Infinity

  Maximum range for interatomic potentials =    100000.000000 Angstroms

  General interatomic potentials :

--------------------------------------------------------------------------------
Atom  Types   Potential         A         B         C         D     Cutoffs(Ang)
  1     2                                                            Min    Max 
--------------------------------------------------------------------------------
K    c K    c Buckingham    0.219E+04 0.192      0.00      0.00     0.000 20.000
Ca   c F    s Buckingham    0.148E+04 0.266      0.00      0.00     0.000 20.000
F    s F    s Buckingham     912.     0.271      13.8      0.00     0.000 20.000
K    c F    s Buckingham    0.352E+04 0.267      0.00      0.00     0.000 20.000
F    c F    s Spring (c-s)   18.8      0.00      0.00      0.00     0.000  0.800
--------------------------------------------------------------------------------

********************************************************************************
*  Output for configuration   1                                                *
********************************************************************************


  Components of energy : 

--------------------------------------------------------------------------------
  Interatomic potentials     =          10.64846977 eV
  Monopole - monopole (real) =         -56.33185180 eV
  Monopole - monopole (recip)=         -70.20616402 eV
  Monopole - monopole (total)=        -126.53801581 eV
--------------------------------------------------------------------------------
  Total lattice energy       =        -115.88954604 eV
--------------------------------------------------------------------------------
  Total lattice energy       =          -11181.5697 kJ/(mole unit cells)
--------------------------------------------------------------------------------


  Number of variables =        3

  Maximum number of calculations  =          1000
  Maximum Hessian update interval =            10
  Maximum step size               =   1.000000000
  Maximum parameter tolerance     =   0.000010000
  Maximum function  tolerance     =   0.000010000
  Maximum gradient  tolerance     =   0.001000000
  Maximum gradient  component     =   0.010000000

  Symmetry constrained optimisation

  Symmetry used for second derivatives

  Cell parameters to be optimised using strains

  Newton-Raphson optimiser to be used

  BFGS hessian update to be used

  Start of bulk optimisation :

  Cycle:      0 Energy:      -115.889546  Gnorm:      5.217722  CPU:    0.008
  ** Hessian calculated **
  Cycle:      1 Energy:      -116.361501  Gnorm:      0.611911  CPU:    0.016
  Cycle:      2 Energy:      -116.366882  Gnorm:      0.103870  CPU:    0.024
  Cycle:      3 Energy:      -116.367080  Gnorm:      0.009966  CPU:    0.032
  Cycle:      4 Energy:      -116.367084  Gnorm:      0.003728  CPU:    0.040


  **** Optimisation achieved ****


  Final energy =    -116.36708436 eV
  Final Gnorm  =       0.00001738

  Components of energy : 

--------------------------------------------------------------------------------
  Interatomic potentials     =          14.48544958 eV
  Monopole - monopole (real) =         -58.25013807 eV
  Monopole - monopole (recip)=         -72.60239587 eV
  Monopole - monopole (total)=        -130.85253394 eV
--------------------------------------------------------------------------------
  Total lattice energy       =        -116.36708436 eV
--------------------------------------------------------------------------------
  Total lattice energy       =          -11227.6448 kJ/(mole unit cells)
--------------------------------------------------------------------------------

  Final asymmetric unit coordinates :

--------------------------------------------------------------------------------
   No.  Atomic        x           y           z         Radius
        Label       (Frac)      (Frac)      (Frac)       (Angs) 
--------------------------------------------------------------------------------
     1  K     c     0.042000    0.250000    0.490600    0.000000
     2  Ca    c     0.000000    0.000000    0.000000    0.000000
     3  F     c     0.471500    0.250000    0.581200    0.000000
     4  F     c     0.291600    0.040400    0.206800    0.000000
     5  F     s     0.471500    0.250000    0.581200    0.000000
     6  F     s     0.291600    0.040400    0.206800    0.000000
--------------------------------------------------------------------------------

  Final Cartesian lattice vectors (Angstroms) :

        6.035498    0.000000    0.000000
        0.000000    8.377527    0.000000
        0.000000    0.000000    5.930817


  Final cell parameters and derivatives :

--------------------------------------------------------------------------------
       a            6.035498 Angstrom     dE/de1(xx)     0.000027 eV/strain
       b            8.377527 Angstrom     dE/de2(yy)     0.000036 eV/strain
       c            5.930817 Angstrom     dE/de3(zz)     0.000027 eV/strain
       alpha       90.000000 Degrees      dE/de4(yz)     0.000000 eV/strain
       beta        90.000000 Degrees      dE/de5(xz)     0.000000 eV/strain
       gamma       90.000000 Degrees      dE/de6(xy)     0.000000 eV/strain
--------------------------------------------------------------------------------

  Primitive cell volume =           299.877217 Angs**3

  Density of cell =      3.016379 g/cm**3

  Non-primitive cell volume =           299.877217 Angs**3


  Final internal derivatives :

--------------------------------------------------------------------------------
   No.  Atomic          a             b             c           Radius
        Label          (eV)          (eV)          (eV)        (eV/Angs)
--------------------------------------------------------------------------------
      1 K     c       0.000000      0.000000      0.000000      0.000000
      2 Ca    c       0.000000      0.000000      0.000000      0.000000
      3 F     c       0.000000      0.000000      0.000000      0.000000
      4 F     c       0.000000      0.000000      0.000000      0.000000
      5 F     s       0.000000      0.000000      0.000000      0.000000
      6 F     s       0.000000      0.000000      0.000000      0.000000
--------------------------------------------------------------------------------
  Maximum abs         0.000000      0.000000      0.000000      0.000000
--------------------------------------------------------------------------------


  Born effective charge tensors : 

-------------------------------------------------------------------------------
  Atom             x           y             z
-------------------------------------------------------------------------------
   1 K     x       0.3322      0.0000     -0.0538
           y       0.0000      0.3716      0.0000
           z      -0.0458      0.0000      0.3240
-------------------------------------------------------------------------------
   2 Ca    x       1.8568      0.0099     -0.0373
           y      -0.0065      1.8221     -0.0257
           z       0.0142      0.0353      1.8587
-------------------------------------------------------------------------------
   3 F     x      -0.6274      0.0000      0.0293
           y       0.0000     -0.9170      0.0000
           z       0.0443      0.0000     -0.6050
-------------------------------------------------------------------------------
   4 F     x      -0.7808      0.0222     -0.1541
           y       0.0252     -0.6384     -0.0119
           z      -0.1520     -0.0105     -0.7889
-------------------------------------------------------------------------------




  Elastic Constant Matrix: (Units=GPa)

-------------------------------------------------------------------------------
  Indices      1         2         3         4         5         6    
-------------------------------------------------------------------------------
       1     78.0897   35.2962   43.3248    0.0000    0.0000    0.0000
       2     35.2962   86.0326   42.7761    0.0000    0.0000    0.0000
       3     43.3248   42.7761   77.5506    0.0000    0.0000    0.0000
       4      0.0000    0.0000    0.0000   22.8162    0.0000    0.0000
       5      0.0000    0.0000    0.0000    0.0000   20.7376    0.0000
       6      0.0000    0.0000    0.0000    0.0000    0.0000   28.5160
-------------------------------------------------------------------------------


  Elastic Compliance Matrix: (Units=1/GPa)

-------------------------------------------------------------------------------
  Indices      1         2         3         4         5         6    
-------------------------------------------------------------------------------
       1    0.019303 -0.003524 -0.008840  0.000000  0.000000  0.000000
       2   -0.003524  0.016659 -0.007220  0.000000  0.000000  0.000000
       3   -0.008840 -0.007220  0.021816  0.000000  0.000000  0.000000
       4    0.000000  0.000000  0.000000  0.043829  0.000000  0.000000
       5    0.000000  0.000000  0.000000  0.000000  0.048222  0.000000
       6    0.000000  0.000000  0.000000  0.000000  0.000000  0.035068
-------------------------------------------------------------------------------

  Mechanical properties :

-------------------------------------------------------------------------------
  Convention :                    Reuss         Voigt         Hill
-------------------------------------------------------------------------------
  Bulk  Modulus (GPa)     =      53.73587      53.82969      53.78278
  Shear Modulus (GPa)     =      21.71371      22.43235      22.07303
-------------------------------------------------------------------------------
  Velocity S-wave (km/s)  =       2.68302       2.72706       2.70513
  Velocity P-wave (km/s)  =       5.23573       5.26893       5.25235
-------------------------------------------------------------------------------
  Compressibility (1/GPa) =    0.01860954
-------------------------------------------------------------------------------
  Stress axis :                     x             y             z
-------------------------------------------------------------------------------
  Youngs Moduli (GPa)     =      51.80472      60.02654      45.83748
-------------------------------------------------------------------------------
  Poissons Ratio (x)      =                     0.21154       0.40521
  Poissons Ratio (y)      =       0.18256                     0.33096
  Poissons Ratio (z)      =       0.45797       0.43341
-------------------------------------------------------------------------------


  Piezoelectric Strain Matrix: (Units=C/m**2)

-------------------------------------------------------------------------------
  Indices      1         2         3         4         5         6    
-------------------------------------------------------------------------------
       x     0.00000   0.00000   0.00000   0.00000   0.00000   0.00000
       y     0.00000   0.00000   0.00000   0.00000   0.00000   0.00000
       z     0.00000   0.00000   0.00000   0.00000   0.00000   0.00000
-------------------------------------------------------------------------------


  Piezoelectric Stress Matrix: (Units=10**-11 C/N)

-------------------------------------------------------------------------------
  Indices      1         2         3         4         5         6    
-------------------------------------------------------------------------------
       x     0.00000   0.00000   0.00000   0.00000   0.00000   0.00000
       y     0.00000   0.00000   0.00000   0.00000   0.00000   0.00000
       z     0.00000   0.00000   0.00000   0.00000   0.00000   0.00000
-------------------------------------------------------------------------------


  Static dielectric constant tensor : 

-------------------------------------------------------------------------------
              x         y         z
-------------------------------------------------------------------------------
       x     3.71397   0.00000   0.00000
       y     0.00000   3.47324   0.00000
       z     0.00000   0.00000   3.55807
--------------------------------------------------------------------------------

  High frequency dielectric constant tensor : 

-------------------------------------------------------------------------------
              x         y         z
-------------------------------------------------------------------------------
       x     1.55032   0.00000   0.00000
       y     0.00000   1.55143   0.00000
       z     0.00000   0.00000   1.54861
-------------------------------------------------------------------------------

  Static refractive indices : 

-------------------------------------------------------------------------------
    1 =    1.86366      2 =    1.88629      3 =    1.92717
-------------------------------------------------------------------------------

  High frequency refractive indices : 

-------------------------------------------------------------------------------
    1 =    1.24443      2 =    1.24512      3 =    1.24556
-------------------------------------------------------------------------------


  Time to end of optimisation =       0.0702 seconds


  Peak dynamic memory used =       0.73 MB 


  Timing analysis for GULP :

--------------------------------------------------------------------------------
  Task / Subroutine                                          Time (Seconds)
--------------------------------------------------------------------------------
  Calculation of reciprocal space energy and derivatives          0.0026
  Calculation of reciprocal space energy using symmetry           0.0042
  Calculation of real space energy and derivatives                0.0185
  Calculation of real space energy using symmetry                 0.0404
  Symmetry generation of equivalent positions                     0.0004
--------------------------------------------------------------------------------
  Total CPU time                                                  0.0702
--------------------------------------------------------------------------------


  CIF file written as perov.cif                                               


  Job Finished at 09:41.40  6th April      2017                               

