********************************************************************************
*                       GENERAL UTILITY LATTICE PROGRAM                        *
*                                 Julian Gale                                  *
*                      Nanochemistry Research Institute                        *
*                           Department of Chemistry                            *
*                    Curtin University, Western Australia                      *
********************************************************************************
* Version = 4.3.2 * Last modified =  3rd March 2015                            *
********************************************************************************
*  optimise     - perform optimisation run                                     *
*  cell_only    - only optimise unit cell                                      *
*  property     - calculate properties for final geometry                      *
********************************************************************************

  Job Started  at 09:41.42  6th April      2017                               

  Number of CPUs =     1


  Total number of configurations input =   1

********************************************************************************
*  Input for Configuration =   1                                               *
********************************************************************************

  Formula = K4Ca4F12                                                    

  Number of irreducible atoms/shells =       6


  Total number atoms/shells =      32

  Dimensionality = 3               :  Bulk   


  Symmetry :

  Crystal family                   :  Orthorhombic
  Crystal class  (Groth - 1921)    :  Orthorhombic Bipyramidal             

  Space group (centrosymmetric)    :  P N M A         

  Patterson group                  :  P m m m  

  Cartesian lattice vectors (Angstroms) :

        6.223500    0.000000    0.000000
        0.000000    8.710300    0.000000
        0.000000    0.000000    6.118000

  Cell parameters (Angstroms/Degrees):

  a =       6.2235    alpha =  90.0000
  b =       8.7103    beta  =  90.0000
  c =       6.1180    gamma =  90.0000

  Initial cell volume =         331.647921 Angs**3

  Temperature of configuration =  0.000     K 

  Pressure of configuration =         0.000 GPa 

  Fractional coordinates of asymmetric unit :

--------------------------------------------------------------------------------
   No.  Atomic       x           y          z         Charge      Occupancy
        Label      (Frac)      (Frac)     (Frac)        (e)         (Frac)  
--------------------------------------------------------------------------------
      1 K     c    0.042000    0.250000    0.490600     0.70000    1.000000    
      2 Ca    c    0.000000    0.000000    0.000000     1.60000    1.000000    
      3 F     c    0.471500    0.250000    0.581200     0.37800    1.000000    
      4 F     c    0.291600    0.040400    0.206800     0.37800    1.000000    
      5 F     s    0.471500    0.250000    0.581200    -1.14467    1.000000    
      6 F     s    0.291600    0.040400    0.206800    -1.14467    1.000000    
--------------------------------------------------------------------------------



********************************************************************************
*  General input information                                                   *
********************************************************************************

  Species output for all configurations : 

--------------------------------------------------------------------------------
  Species    Type    Atomic    Atomic    Charge       Radii (Angs)     Library
                     Number     Mass       (e)     Cova   Ionic  VDW   Symbol
--------------------------------------------------------------------------------
    K        Core       19      39.10   0.700000   1.330  0.000  2.800          
    Ca       Core       20      40.08   1.600000   0.990  0.000  2.750          
    F        Core        9      19.00   0.378000   0.710  0.000  1.300          
    F        Shell       9       0.00  -1.144667   0.710  0.000  1.300          
--------------------------------------------------------------------------------


  Lattice summation method               =    Ewald          (3-D)
                                         =    Parry          (2-D)
                                         =    Saunders et al (1-D)
  Accuracy factor for lattice sums       =   12.000


  Time limit = Infinity

  Maximum range for interatomic potentials =    100000.000000 Angstroms

  General interatomic potentials :

--------------------------------------------------------------------------------
Atom  Types   Potential         A         B         C         D     Cutoffs(Ang)
  1     2                                                            Min    Max 
--------------------------------------------------------------------------------
K    c K    c Buckingham    0.219E+04 0.192      0.00      0.00     0.000 20.000
Ca   c F    s Buckingham    0.148E+04 0.266      0.00      0.00     0.000 20.000
F    s F    s Buckingham     912.     0.271      13.8      0.00     0.000 20.000
K    c F    s Buckingham    0.352E+04 0.267      0.00      0.00     0.000 20.000
F    c F    s Spring (c-s)   16.8      0.00      0.00      0.00     0.000  0.800
--------------------------------------------------------------------------------

********************************************************************************
*  Output for configuration   1                                                *
********************************************************************************


  Components of energy : 

--------------------------------------------------------------------------------
  Interatomic potentials     =          10.64846977 eV
  Monopole - monopole (real) =         -43.73122922 eV
  Monopole - monopole (recip)=         -53.42694647 eV
  Monopole - monopole (total)=         -97.15817568 eV
--------------------------------------------------------------------------------
  Total lattice energy       =         -86.50970591 eV
--------------------------------------------------------------------------------
  Total lattice energy       =           -8346.8642 kJ/(mole unit cells)
--------------------------------------------------------------------------------


  Number of variables =        3

  Maximum number of calculations  =          1000
  Maximum Hessian update interval =            10
  Maximum step size               =   1.000000000
  Maximum parameter tolerance     =   0.000010000
  Maximum function  tolerance     =   0.000010000
  Maximum gradient  tolerance     =   0.001000000
  Maximum gradient  component     =   0.010000000

  Symmetry constrained optimisation

  Symmetry used for second derivatives

  Cell parameters to be optimised using strains

  Newton-Raphson optimiser to be used

  BFGS hessian update to be used

  Start of bulk optimisation :

  Cycle:      0 Energy:       -86.509706  Gnorm:      0.485508  CPU:    0.009
  ** Hessian calculated **
  Cycle:      1 Energy:       -86.515138  Gnorm:      0.002303  CPU:    0.018


  **** Optimisation achieved ****


  Final energy =     -86.51513804 eV
  Final Gnorm  =       0.00001183

  Components of energy : 

--------------------------------------------------------------------------------
  Interatomic potentials     =          10.33877655 eV
  Monopole - monopole (real) =         -43.59239365 eV
  Monopole - monopole (recip)=         -53.26152094 eV
  Monopole - monopole (total)=         -96.85391460 eV
--------------------------------------------------------------------------------
  Total lattice energy       =         -86.51513804 eV
--------------------------------------------------------------------------------
  Total lattice energy       =           -8347.3883 kJ/(mole unit cells)
--------------------------------------------------------------------------------

  Final asymmetric unit coordinates :

--------------------------------------------------------------------------------
   No.  Atomic        x           y           z         Radius
        Label       (Frac)      (Frac)      (Frac)       (Angs) 
--------------------------------------------------------------------------------
     1  K     c     0.042000    0.250000    0.490600    0.000000
     2  Ca    c     0.000000    0.000000    0.000000    0.000000
     3  F     c     0.471500    0.250000    0.581200    0.000000
     4  F     c     0.291600    0.040400    0.206800    0.000000
     5  F     s     0.471500    0.250000    0.581200    0.000000
     6  F     s     0.291600    0.040400    0.206800    0.000000
--------------------------------------------------------------------------------

  Final Cartesian lattice vectors (Angstroms) :

        6.260589    0.000000    0.000000
        0.000000    8.693009    0.000000
        0.000000    0.000000    6.150763


  Final cell parameters and derivatives :

--------------------------------------------------------------------------------
       a            6.260589 Angstrom     dE/de1(xx)    -0.000003 eV/strain
       b            8.693009 Angstrom     dE/de2(yy)     0.000035 eV/strain
       c            6.150763 Angstrom     dE/de3(zz)    -0.000004 eV/strain
       alpha       90.000000 Degrees      dE/de4(yz)     0.000000 eV/strain
       beta        90.000000 Degrees      dE/de5(xz)     0.000000 eV/strain
       gamma       90.000000 Degrees      dE/de6(xy)     0.000000 eV/strain
--------------------------------------------------------------------------------

  Primitive cell volume =           334.745182 Angs**3

  Density of cell =      2.702184 g/cm**3

  Non-primitive cell volume =           334.745182 Angs**3


  Final internal derivatives :

--------------------------------------------------------------------------------
   No.  Atomic          a             b             c           Radius
        Label          (eV)          (eV)          (eV)        (eV/Angs)
--------------------------------------------------------------------------------
      1 K     c       0.000000      0.000000      0.000000      0.000000
      2 Ca    c       0.000000      0.000000      0.000000      0.000000
      3 F     c       0.000000      0.000000      0.000000      0.000000
      4 F     c       0.000000      0.000000      0.000000      0.000000
      5 F     s       0.000000      0.000000      0.000000      0.000000
      6 F     s       0.000000      0.000000      0.000000      0.000000
--------------------------------------------------------------------------------
  Maximum abs         0.000000      0.000000      0.000000      0.000000
--------------------------------------------------------------------------------


  Born effective charge tensors : 

-------------------------------------------------------------------------------
  Atom             x           y             z
-------------------------------------------------------------------------------
   1 K     x       0.6133      0.0000     -0.0309
           y       0.0000      0.6435      0.0000
           z      -0.0308      0.0000      0.6056
-------------------------------------------------------------------------------
   2 Ca    x       1.4291      0.0071     -0.0146
           y       0.0004      1.4039     -0.0064
           z       0.0031      0.0146      1.4298
-------------------------------------------------------------------------------
   3 F     x      -0.6329      0.0000      0.0181
           y       0.0000     -0.7601      0.0000
           z       0.0256      0.0000     -0.6149
-------------------------------------------------------------------------------
   4 F     x      -0.7047      0.0168     -0.0692
           y       0.0198     -0.6436     -0.0154
           z      -0.0681     -0.0153     -0.7102
-------------------------------------------------------------------------------




  Elastic Constant Matrix: (Units=GPa)

-------------------------------------------------------------------------------
  Indices      1         2         3         4         5         6    
-------------------------------------------------------------------------------
       1     56.4002   24.3432   28.9656    0.0000    0.0000    0.0000
       2     24.3432   61.8167   27.5215    0.0000    0.0000    0.0000
       3     28.9656   27.5215   57.0222    0.0000    0.0000    0.0000
       4      0.0000    0.0000    0.0000   16.7949    0.0000    0.0000
       5      0.0000    0.0000    0.0000    0.0000   16.3160    0.0000
       6      0.0000    0.0000    0.0000    0.0000    0.0000   20.0335
-------------------------------------------------------------------------------


  Elastic Compliance Matrix: (Units=1/GPa)

-------------------------------------------------------------------------------
  Indices      1         2         3         4         5         6    
-------------------------------------------------------------------------------
       1    0.025333 -0.005409 -0.010258  0.000000  0.000000  0.000000
       2   -0.005409  0.021759 -0.007754  0.000000  0.000000  0.000000
       3   -0.010258 -0.007754  0.026490  0.000000  0.000000  0.000000
       4    0.000000  0.000000  0.000000  0.059542  0.000000  0.000000
       5    0.000000  0.000000  0.000000  0.000000  0.061290  0.000000
       6    0.000000  0.000000  0.000000  0.000000  0.000000  0.049916
-------------------------------------------------------------------------------

  Mechanical properties :

-------------------------------------------------------------------------------
  Convention :                    Reuss         Voigt         Hill
-------------------------------------------------------------------------------
  Bulk  Modulus (GPa)     =      37.39698      37.43332      37.41515
  Shear Modulus (GPa)     =      16.66184      16.92279      16.79231
-------------------------------------------------------------------------------
  Velocity S-wave (km/s)  =       2.48316       2.50253       2.49286
  Velocity P-wave (km/s)  =       4.69691       4.71202       4.70447
-------------------------------------------------------------------------------
  Compressibility (1/GPa) =    0.02674013
-------------------------------------------------------------------------------
  Stress axis :                     x             y             z
-------------------------------------------------------------------------------
  Youngs Moduli (GPa)     =      39.47373      45.95732      37.74964
-------------------------------------------------------------------------------
  Poissons Ratio (x)      =                     0.24860       0.38723
  Poissons Ratio (y)      =       0.21352                     0.29272
  Poissons Ratio (z)      =       0.40492       0.35637
-------------------------------------------------------------------------------


  Piezoelectric Strain Matrix: (Units=C/m**2)

-------------------------------------------------------------------------------
  Indices      1         2         3         4         5         6    
-------------------------------------------------------------------------------
       x     0.00000   0.00000   0.00000   0.00000   0.00000   0.00000
       y     0.00000   0.00000   0.00000   0.00000   0.00000   0.00000
       z     0.00000   0.00000   0.00000   0.00000   0.00000   0.00000
-------------------------------------------------------------------------------


  Piezoelectric Stress Matrix: (Units=10**-11 C/N)

-------------------------------------------------------------------------------
  Indices      1         2         3         4         5         6    
-------------------------------------------------------------------------------
       x     0.00000   0.00000   0.00000   0.00000   0.00000   0.00000
       y     0.00000   0.00000   0.00000   0.00000   0.00000   0.00000
       z     0.00000   0.00000   0.00000   0.00000   0.00000   0.00000
-------------------------------------------------------------------------------


  Static dielectric constant tensor : 

-------------------------------------------------------------------------------
              x         y         z
-------------------------------------------------------------------------------
       x     3.45003   0.00000   0.00000
       y     0.00000   3.51922   0.00000
       z     0.00000   0.00000   3.23759
--------------------------------------------------------------------------------

  High frequency dielectric constant tensor : 

-------------------------------------------------------------------------------
              x         y         z
-------------------------------------------------------------------------------
       x     1.49640   0.00000   0.00000
       y     0.00000   1.49749   0.00000
       z     0.00000   0.00000   1.49476
-------------------------------------------------------------------------------

  Static refractive indices : 

-------------------------------------------------------------------------------
    1 =    1.79933      2 =    1.85742      3 =    1.87596
-------------------------------------------------------------------------------

  High frequency refractive indices : 

-------------------------------------------------------------------------------
    1 =    1.22260      2 =    1.22328      3 =    1.22372
-------------------------------------------------------------------------------


  Time to end of optimisation =       0.0481 seconds


  Peak dynamic memory used =       0.73 MB 


  Timing analysis for GULP :

--------------------------------------------------------------------------------
  Task / Subroutine                                          Time (Seconds)
--------------------------------------------------------------------------------
  Calculation of reciprocal space energy and derivatives          0.0025
  Calculation of reciprocal space energy using symmetry           0.0023
  Calculation of real space energy and derivatives                0.0180
  Calculation of real space energy using symmetry                 0.0209
  Symmetry generation of equivalent positions                     0.0003
--------------------------------------------------------------------------------
  Total CPU time                                                  0.0481
--------------------------------------------------------------------------------


  CIF file written as perov.cif                                               


  Job Finished at 09:41.42  6th April      2017                               

