********************************************************************************
*                       GENERAL UTILITY LATTICE PROGRAM                        *
*                                 Julian Gale                                  *
*                      Nanochemistry Research Institute                        *
*                           Department of Chemistry                            *
*                    Curtin University, Western Australia                      *
********************************************************************************
* Version = 4.3.2 * Last modified =  3rd March 2015                            *
********************************************************************************
*  optimise     - perform optimisation run                                     *
*  cell_only    - only optimise unit cell                                      *
*  property     - calculate properties for final geometry                      *
********************************************************************************

  Job Started  at 09:41.41  6th April      2017                               

  Number of CPUs =     1


  Total number of configurations input =   1

********************************************************************************
*  Input for Configuration =   1                                               *
********************************************************************************

  Formula = K4Ca4F12                                                    

  Number of irreducible atoms/shells =       6


  Total number atoms/shells =      32

  Dimensionality = 3               :  Bulk   


  Symmetry :

  Crystal family                   :  Orthorhombic
  Crystal class  (Groth - 1921)    :  Orthorhombic Bipyramidal             

  Space group (centrosymmetric)    :  P N M A         

  Patterson group                  :  P m m m  

  Cartesian lattice vectors (Angstroms) :

        6.223500    0.000000    0.000000
        0.000000    8.710300    0.000000
        0.000000    0.000000    6.118000

  Cell parameters (Angstroms/Degrees):

  a =       6.2235    alpha =  90.0000
  b =       8.7103    beta  =  90.0000
  c =       6.1180    gamma =  90.0000

  Initial cell volume =         331.647921 Angs**3

  Temperature of configuration =  0.000     K 

  Pressure of configuration =         0.000 GPa 

  Fractional coordinates of asymmetric unit :

--------------------------------------------------------------------------------
   No.  Atomic       x           y          z         Charge      Occupancy
        Label      (Frac)      (Frac)     (Frac)        (e)         (Frac)  
--------------------------------------------------------------------------------
      1 K     c    0.042000    0.250000    0.490600     0.60000    1.000000    
      2 Ca    c    0.000000    0.000000    0.000000     1.70000    1.000000    
      3 F     c    0.471500    0.250000    0.581200     0.37800    1.000000    
      4 F     c    0.291600    0.040400    0.206800     0.37800    1.000000    
      5 F     s    0.471500    0.250000    0.581200    -1.14467    1.000000    
      6 F     s    0.291600    0.040400    0.206800    -1.14467    1.000000    
--------------------------------------------------------------------------------



********************************************************************************
*  General input information                                                   *
********************************************************************************

  Species output for all configurations : 

--------------------------------------------------------------------------------
  Species    Type    Atomic    Atomic    Charge       Radii (Angs)     Library
                     Number     Mass       (e)     Cova   Ionic  VDW   Symbol
--------------------------------------------------------------------------------
    K        Core       19      39.10   0.600000   1.330  0.000  2.800          
    Ca       Core       20      40.08   1.700000   0.990  0.000  2.750          
    F        Core        9      19.00   0.378000   0.710  0.000  1.300          
    F        Shell       9       0.00  -1.144667   0.710  0.000  1.300          
--------------------------------------------------------------------------------


  Lattice summation method               =    Ewald          (3-D)
                                         =    Parry          (2-D)
                                         =    Saunders et al (1-D)
  Accuracy factor for lattice sums       =   12.000


  Time limit = Infinity

  Maximum range for interatomic potentials =    100000.000000 Angstroms

  General interatomic potentials :

--------------------------------------------------------------------------------
Atom  Types   Potential         A         B         C         D     Cutoffs(Ang)
  1     2                                                            Min    Max 
--------------------------------------------------------------------------------
K    c K    c Buckingham    0.219E+04 0.192      0.00      0.00     0.000 20.000
Ca   c F    s Buckingham    0.148E+04 0.266      0.00      0.00     0.000 20.000
F    s F    s Buckingham     912.     0.271      13.8      0.00     0.000 20.000
K    c F    s Buckingham    0.352E+04 0.267      0.00      0.00     0.000 20.000
F    c F    s Spring (c-s)   16.8      0.00      0.00      0.00     0.000  0.800
--------------------------------------------------------------------------------

********************************************************************************
*  Output for configuration   1                                                *
********************************************************************************


  Components of energy : 

--------------------------------------------------------------------------------
  Interatomic potentials     =          10.64846977 eV
  Monopole - monopole (real) =         -45.30110049 eV
  Monopole - monopole (recip)=         -55.62225431 eV
  Monopole - monopole (total)=        -100.92335480 eV
--------------------------------------------------------------------------------
  Total lattice energy       =         -90.27488503 eV
--------------------------------------------------------------------------------
  Total lattice energy       =           -8710.1464 kJ/(mole unit cells)
--------------------------------------------------------------------------------


  Number of variables =        3

  Maximum number of calculations  =          1000
  Maximum Hessian update interval =            10
  Maximum step size               =   1.000000000
  Maximum parameter tolerance     =   0.000010000
  Maximum function  tolerance     =   0.000010000
  Maximum gradient  tolerance     =   0.001000000
  Maximum gradient  component     =   0.010000000

  Symmetry constrained optimisation

  Symmetry used for second derivatives

  Cell parameters to be optimised using strains

  Newton-Raphson optimiser to be used

  BFGS hessian update to be used

  Start of bulk optimisation :

  Cycle:      0 Energy:       -90.274885  Gnorm:      0.350393  CPU:    0.008
  ** Hessian calculated **
  Cycle:      1 Energy:       -90.278393  Gnorm:      0.001410  CPU:    0.018


  **** Optimisation achieved ****


  Final energy =     -90.27839337 eV
  Final Gnorm  =       0.00004352

  Components of energy : 

--------------------------------------------------------------------------------
  Interatomic potentials     =          10.85159644 eV
  Monopole - monopole (real) =         -45.39189883 eV
  Monopole - monopole (recip)=         -55.73809097 eV
  Monopole - monopole (total)=        -101.12998981 eV
--------------------------------------------------------------------------------
  Total lattice energy       =         -90.27839337 eV
--------------------------------------------------------------------------------
  Total lattice energy       =           -8710.4849 kJ/(mole unit cells)
--------------------------------------------------------------------------------

  Final asymmetric unit coordinates :

--------------------------------------------------------------------------------
   No.  Atomic        x           y           z         Radius
        Label       (Frac)      (Frac)      (Frac)       (Angs) 
--------------------------------------------------------------------------------
     1  K     c     0.042000    0.250000    0.490600    0.000000
     2  Ca    c     0.000000    0.000000    0.000000    0.000000
     3  F     c     0.471500    0.250000    0.581200    0.000000
     4  F     c     0.291600    0.040400    0.206800    0.000000
     5  F     s     0.471500    0.250000    0.581200    0.000000
     6  F     s     0.291600    0.040400    0.206800    0.000000
--------------------------------------------------------------------------------

  Final Cartesian lattice vectors (Angstroms) :

        6.227863    0.000000    0.000000
        0.000000    8.647425    0.000000
        0.000000    0.000000    6.119787


  Final cell parameters and derivatives :

--------------------------------------------------------------------------------
       a            6.227863 Angstrom     dE/de1(xx)     0.000013 eV/strain
       b            8.647425 Angstrom     dE/de2(yy)     0.000129 eV/strain
       c            6.119787 Angstrom     dE/de3(zz)     0.000011 eV/strain
       alpha       90.000000 Degrees      dE/de4(yz)     0.000000 eV/strain
       beta        90.000000 Degrees      dE/de5(xz)     0.000000 eV/strain
       gamma       90.000000 Degrees      dE/de6(xy)     0.000000 eV/strain
--------------------------------------------------------------------------------

  Primitive cell volume =           329.580968 Angs**3

  Density of cell =      2.744525 g/cm**3

  Non-primitive cell volume =           329.580968 Angs**3


  Final internal derivatives :

--------------------------------------------------------------------------------
   No.  Atomic          a             b             c           Radius
        Label          (eV)          (eV)          (eV)        (eV/Angs)
--------------------------------------------------------------------------------
      1 K     c       0.000000      0.000000      0.000000      0.000000
      2 Ca    c       0.000000      0.000000      0.000000      0.000000
      3 F     c       0.000000      0.000000      0.000000      0.000000
      4 F     c       0.000000      0.000000      0.000000      0.000000
      5 F     s       0.000000      0.000000      0.000000      0.000000
      6 F     s       0.000000      0.000000      0.000000      0.000000
--------------------------------------------------------------------------------
  Maximum abs         0.000000      0.000000      0.000000      0.000000
--------------------------------------------------------------------------------


  Born effective charge tensors : 

-------------------------------------------------------------------------------
  Atom             x           y             z
-------------------------------------------------------------------------------
   1 K     x       0.4908      0.0000     -0.0364
           y       0.0000      0.5225      0.0000
           z      -0.0343      0.0000      0.4830
-------------------------------------------------------------------------------
   2 Ca    x       1.5406      0.0073     -0.0199
           y      -0.0015      1.5136     -0.0109
           z       0.0057      0.0193      1.5417
-------------------------------------------------------------------------------
   3 F     x      -0.6137      0.0000      0.0214
           y       0.0000     -0.7877      0.0000
           z       0.0308      0.0000     -0.5948
-------------------------------------------------------------------------------
   4 F     x      -0.7088      0.0179     -0.0936
           y       0.0207     -0.6242     -0.0137
           z      -0.0922     -0.0132     -0.7150
-------------------------------------------------------------------------------




  Elastic Constant Matrix: (Units=GPa)

-------------------------------------------------------------------------------
  Indices      1         2         3         4         5         6    
-------------------------------------------------------------------------------
       1     58.6211   25.6451   31.1033    0.0000    0.0000    0.0000
       2     25.6451   64.5595   29.6484    0.0000    0.0000    0.0000
       3     31.1033   29.6484   58.7623    0.0000    0.0000    0.0000
       4      0.0000    0.0000    0.0000   17.1601    0.0000    0.0000
       5      0.0000    0.0000    0.0000    0.0000   16.5591    0.0000
       6      0.0000    0.0000    0.0000    0.0000    0.0000   20.8269
-------------------------------------------------------------------------------


  Elastic Compliance Matrix: (Units=1/GPa)

-------------------------------------------------------------------------------
  Indices      1         2         3         4         5         6    
-------------------------------------------------------------------------------
       1    0.024900 -0.004996 -0.010659  0.000000  0.000000  0.000000
       2   -0.004996  0.021164 -0.008034  0.000000  0.000000  0.000000
       3   -0.010659 -0.008034  0.026713  0.000000  0.000000  0.000000
       4    0.000000  0.000000  0.000000  0.058275  0.000000  0.000000
       5    0.000000  0.000000  0.000000  0.000000  0.060390  0.000000
       6    0.000000  0.000000  0.000000  0.000000  0.000000  0.048015
-------------------------------------------------------------------------------

  Mechanical properties :

-------------------------------------------------------------------------------
  Convention :                    Reuss         Voigt         Hill
-------------------------------------------------------------------------------
  Bulk  Modulus (GPa)     =      39.37136      39.41518      39.39327
  Shear Modulus (GPa)     =      16.93200      17.27895      17.10547
-------------------------------------------------------------------------------
  Velocity S-wave (km/s)  =       2.48382       2.50914       2.49651
  Velocity P-wave (km/s)  =       4.75092       4.77030       4.76062
-------------------------------------------------------------------------------
  Compressibility (1/GPa) =    0.02539917
-------------------------------------------------------------------------------
  Stress axis :                     x             y             z
-------------------------------------------------------------------------------
  Youngs Moduli (GPa)     =      40.16113      47.25110      37.43515
-------------------------------------------------------------------------------
  Poissons Ratio (x)      =                     0.23607       0.39902
  Poissons Ratio (y)      =       0.20064                     0.30074
  Poissons Ratio (z)      =       0.42807       0.37960
-------------------------------------------------------------------------------


  Piezoelectric Strain Matrix: (Units=C/m**2)

-------------------------------------------------------------------------------
  Indices      1         2         3         4         5         6    
-------------------------------------------------------------------------------
       x     0.00000   0.00000   0.00000   0.00000   0.00000   0.00000
       y     0.00000   0.00000   0.00000   0.00000   0.00000   0.00000
       z     0.00000   0.00000   0.00000   0.00000   0.00000   0.00000
-------------------------------------------------------------------------------


  Piezoelectric Stress Matrix: (Units=10**-11 C/N)

-------------------------------------------------------------------------------
  Indices      1         2         3         4         5         6    
-------------------------------------------------------------------------------
       x     0.00000   0.00000   0.00000   0.00000   0.00000   0.00000
       y     0.00000   0.00000   0.00000   0.00000   0.00000   0.00000
       z     0.00000   0.00000   0.00000   0.00000   0.00000   0.00000
-------------------------------------------------------------------------------


  Static dielectric constant tensor : 

-------------------------------------------------------------------------------
              x         y         z
-------------------------------------------------------------------------------
       x     3.39750   0.00000   0.00000
       y     0.00000   3.34154   0.00000
       z     0.00000   0.00000   3.21259
--------------------------------------------------------------------------------

  High frequency dielectric constant tensor : 

-------------------------------------------------------------------------------
              x         y         z
-------------------------------------------------------------------------------
       x     1.50312   0.00000   0.00000
       y     0.00000   1.50417   0.00000
       z     0.00000   0.00000   1.50148
-------------------------------------------------------------------------------

  Static refractive indices : 

-------------------------------------------------------------------------------
    1 =    1.79237      2 =    1.82799      3 =    1.84323
-------------------------------------------------------------------------------

  High frequency refractive indices : 

-------------------------------------------------------------------------------
    1 =    1.22535      2 =    1.22602      3 =    1.22644
-------------------------------------------------------------------------------


  Time to end of optimisation =       0.0469 seconds


  Peak dynamic memory used =       0.73 MB 


  Timing analysis for GULP :

--------------------------------------------------------------------------------
  Task / Subroutine                                          Time (Seconds)
--------------------------------------------------------------------------------
  Calculation of reciprocal space energy and derivatives          0.0025
  Calculation of reciprocal space energy using symmetry           0.0023
  Calculation of real space energy and derivatives                0.0176
  Calculation of real space energy using symmetry                 0.0205
  Symmetry generation of equivalent positions                     0.0003
--------------------------------------------------------------------------------
  Total CPU time                                                  0.0470
--------------------------------------------------------------------------------


  CIF file written as perov.cif                                               


  Job Finished at 09:41.41  6th April      2017                               

