********************************************************************************
*                       GENERAL UTILITY LATTICE PROGRAM                        *
*                                 Julian Gale                                  *
*                      Nanochemistry Research Institute                        *
*                           Department of Chemistry                            *
*                    Curtin University, Western Australia                      *
********************************************************************************
* Version = 4.3.2 * Last modified =  3rd March 2015                            *
********************************************************************************
*  optimise     - perform optimisation run                                     *
*  cell_only    - only optimise unit cell                                      *
*  property     - calculate properties for final geometry                      *
********************************************************************************

  Job Started  at 09:41.46  6th April      2017                               

  Number of CPUs =     1


  Total number of configurations input =   1

********************************************************************************
*  Input for Configuration =   1                                               *
********************************************************************************

  Formula = K4Ca4F12                                                    

  Number of irreducible atoms/shells =       6


  Total number atoms/shells =      32

  Dimensionality = 3               :  Bulk   


  Symmetry :

  Crystal family                   :  Orthorhombic
  Crystal class  (Groth - 1921)    :  Orthorhombic Bipyramidal             

  Space group (centrosymmetric)    :  P N M A         

  Patterson group                  :  P m m m  

  Cartesian lattice vectors (Angstroms) :

        6.223500    0.000000    0.000000
        0.000000    8.710300    0.000000
        0.000000    0.000000    6.118000

  Cell parameters (Angstroms/Degrees):

  a =       6.2235    alpha =  90.0000
  b =       8.7103    beta  =  90.0000
  c =       6.1180    gamma =  90.0000

  Initial cell volume =         331.647921 Angs**3

  Temperature of configuration =  0.000     K 

  Pressure of configuration =         0.000 GPa 

  Fractional coordinates of asymmetric unit :

--------------------------------------------------------------------------------
   No.  Atomic       x           y          z         Charge      Occupancy
        Label      (Frac)      (Frac)     (Frac)        (e)         (Frac)  
--------------------------------------------------------------------------------
      1 K     c    0.042000    0.250000    0.490600     1.10000    1.000000    
      2 Ca    c    0.000000    0.000000    0.000000     2.40000    1.000000    
      3 F     c    0.471500    0.250000    0.581200     0.37800    1.000000    
      4 F     c    0.291600    0.040400    0.206800     0.37800    1.000000    
      5 F     s    0.471500    0.250000    0.581200    -1.54467    1.000000    
      6 F     s    0.291600    0.040400    0.206800    -1.54467    1.000000    
--------------------------------------------------------------------------------



********************************************************************************
*  General input information                                                   *
********************************************************************************

  Species output for all configurations : 

--------------------------------------------------------------------------------
  Species    Type    Atomic    Atomic    Charge       Radii (Angs)     Library
                     Number     Mass       (e)     Cova   Ionic  VDW   Symbol
--------------------------------------------------------------------------------
    K        Core       19      39.10   1.100000   1.330  0.000  2.800          
    Ca       Core       20      40.08   2.400000   0.990  0.000  2.750          
    F        Core        9      19.00   0.378000   0.710  0.000  1.300          
    F        Shell       9       0.00  -1.544667   0.710  0.000  1.300          
--------------------------------------------------------------------------------


  Lattice summation method               =    Ewald          (3-D)
                                         =    Parry          (2-D)
                                         =    Saunders et al (1-D)
  Accuracy factor for lattice sums       =   12.000


  Time limit = Infinity

  Maximum range for interatomic potentials =    100000.000000 Angstroms

  General interatomic potentials :

--------------------------------------------------------------------------------
Atom  Types   Potential         A         B         C         D     Cutoffs(Ang)
  1     2                                                            Min    Max 
--------------------------------------------------------------------------------
K    c K    c Buckingham    0.219E+04 0.192      0.00      0.00     0.000 20.000
Ca   c F    s Buckingham    0.148E+04 0.266      0.00      0.00     0.000 20.000
F    s F    s Buckingham     912.     0.271      13.8      0.00     0.000 20.000
K    c F    s Buckingham    0.352E+04 0.267      0.00      0.00     0.000 20.000
F    c F    s Spring (c-s)   30.6      0.00      0.00      0.00     0.000  0.800
--------------------------------------------------------------------------------

********************************************************************************
*  Output for configuration   1                                                *
********************************************************************************


  Components of energy : 

--------------------------------------------------------------------------------
  Interatomic potentials     =          10.64846977 eV
  Monopole - monopole (real) =        -100.47194172 eV
  Monopole - monopole (recip)=        -122.69893180 eV
  Monopole - monopole (total)=        -223.17087352 eV
--------------------------------------------------------------------------------
  Total lattice energy       =        -212.52240375 eV
--------------------------------------------------------------------------------
  Total lattice energy       =          -20505.1633 kJ/(mole unit cells)
--------------------------------------------------------------------------------


  Number of variables =        3

  Maximum number of calculations  =          1000
  Maximum Hessian update interval =            10
  Maximum step size               =   1.000000000
  Maximum parameter tolerance     =   0.000010000
  Maximum function  tolerance     =   0.000010000
  Maximum gradient  tolerance     =   0.001000000
  Maximum gradient  component     =   0.010000000

  Symmetry constrained optimisation

  Symmetry used for second derivatives

  Cell parameters to be optimised using strains

  Newton-Raphson optimiser to be used

  BFGS hessian update to be used

  Start of bulk optimisation :

  Cycle:      0 Energy:      -212.522404  Gnorm:     23.814120  CPU:    0.010
  ** Hessian calculated **
  Cycle:      1 Energy:      -220.902123  Gnorm:      2.351260  CPU:    0.023
  Cycle:      2 Energy:      -220.957744  Gnorm:      1.370390  CPU:    0.032
  Cycle:      3 Energy:      -220.975151  Gnorm:      0.038172  CPU:    0.043
  Cycle:      4 Energy:      -220.975184  Gnorm:      0.002016  CPU:    0.052


  **** Optimisation achieved ****


  Final energy =    -220.97518400 eV
  Final Gnorm  =       0.00038006

  Components of energy : 

--------------------------------------------------------------------------------
  Interatomic potentials     =          30.12301882 eV
  Monopole - monopole (real) =        -113.03997380 eV
  Monopole - monopole (recip)=        -138.05822902 eV
  Monopole - monopole (total)=        -251.09820282 eV
--------------------------------------------------------------------------------
  Total lattice energy       =        -220.97518400 eV
--------------------------------------------------------------------------------
  Total lattice energy       =          -21320.7273 kJ/(mole unit cells)
--------------------------------------------------------------------------------

  Final asymmetric unit coordinates :

--------------------------------------------------------------------------------
   No.  Atomic        x           y           z         Radius
        Label       (Frac)      (Frac)      (Frac)       (Angs) 
--------------------------------------------------------------------------------
     1  K     c     0.042000    0.250000    0.490600    0.000000
     2  Ca    c     0.000000    0.000000    0.000000    0.000000
     3  F     c     0.471500    0.250000    0.581200    0.000000
     4  F     c     0.291600    0.040400    0.206800    0.000000
     5  F     s     0.471500    0.250000    0.581200    0.000000
     6  F     s     0.291600    0.040400    0.206800    0.000000
--------------------------------------------------------------------------------

  Final Cartesian lattice vectors (Angstroms) :

        5.551054    0.000000    0.000000
        0.000000    7.697144    0.000000
        0.000000    0.000000    5.448843


  Final cell parameters and derivatives :

--------------------------------------------------------------------------------
       a            5.551054 Angstrom     dE/de1(xx)    -0.000709 eV/strain
       b            7.697144 Angstrom     dE/de2(yy)    -0.000050 eV/strain
       c            5.448843 Angstrom     dE/de3(zz)     0.000891 eV/strain
       alpha       90.000000 Degrees      dE/de4(yz)     0.000000 eV/strain
       beta        90.000000 Degrees      dE/de5(xz)     0.000000 eV/strain
       gamma       90.000000 Degrees      dE/de6(xy)     0.000000 eV/strain
--------------------------------------------------------------------------------

  Primitive cell volume =           232.814116 Angs**3

  Density of cell =      3.885259 g/cm**3

  Non-primitive cell volume =           232.814116 Angs**3


  Final internal derivatives :

--------------------------------------------------------------------------------
   No.  Atomic          a             b             c           Radius
        Label          (eV)          (eV)          (eV)        (eV/Angs)
--------------------------------------------------------------------------------
      1 K     c       0.000000      0.000000      0.000000      0.000000
      2 Ca    c       0.000000      0.000000      0.000000      0.000000
      3 F     c       0.000000      0.000000      0.000000      0.000000
      4 F     c       0.000000      0.000000      0.000000      0.000000
      5 F     s       0.000000      0.000000      0.000000      0.000000
      6 F     s       0.000000      0.000000      0.000000      0.000000
--------------------------------------------------------------------------------
  Maximum abs         0.000000      0.000000      0.000000      0.000000
--------------------------------------------------------------------------------


  Born effective charge tensors : 

-------------------------------------------------------------------------------
  Atom             x           y             z
-------------------------------------------------------------------------------
   1 K     x       0.8900      0.0000     -0.0643
           y       0.0000      0.9496      0.0000
           z      -0.0617      0.0000      0.8780
-------------------------------------------------------------------------------
   2 Ca    x       2.2204      0.0142     -0.0539
           y      -0.0097      2.1714     -0.0421
           z       0.0229      0.0530      2.2217
-------------------------------------------------------------------------------
   3 F     x      -0.9063      0.0000      0.0311
           y       0.0000     -1.2707      0.0000
           z       0.0578      0.0000     -0.8800
-------------------------------------------------------------------------------
   4 F     x      -1.1020      0.0280     -0.1909
           y       0.0345     -0.9252     -0.0219
           z      -0.1877     -0.0204     -1.1098
-------------------------------------------------------------------------------




  Elastic Constant Matrix: (Units=GPa)

-------------------------------------------------------------------------------
  Indices      1         2         3         4         5         6    
-------------------------------------------------------------------------------
       1    185.2080   85.5387   74.7910    0.0000    0.0000    0.0000
       2     85.5387  182.4483   96.3781    0.0000    0.0000    0.0000
       3     74.7910   96.3781  198.3145    0.0000    0.0000    0.0000
       4      0.0000    0.0000    0.0000   69.0596    0.0000    0.0000
       5      0.0000    0.0000    0.0000    0.0000   39.8131    0.0000
       6      0.0000    0.0000    0.0000    0.0000    0.0000   79.4352
-------------------------------------------------------------------------------


  Elastic Compliance Matrix: (Units=1/GPa)

-------------------------------------------------------------------------------
  Indices      1         2         3         4         5         6    
-------------------------------------------------------------------------------
       1    0.007186 -0.002607 -0.001443  0.000000  0.000000  0.000000
       2   -0.002607  0.008320 -0.003060  0.000000  0.000000  0.000000
       3   -0.001443 -0.003060  0.007074  0.000000  0.000000  0.000000
       4    0.000000  0.000000  0.000000  0.014480  0.000000  0.000000
       5    0.000000  0.000000  0.000000  0.000000  0.025117  0.000000
       6    0.000000  0.000000  0.000000  0.000000  0.000000  0.012589
-------------------------------------------------------------------------------

  Mechanical properties :

-------------------------------------------------------------------------------
  Convention :                    Reuss         Voigt         Hill
-------------------------------------------------------------------------------
  Bulk  Modulus (GPa)     =     119.62528     119.93183     119.77855
  Shear Modulus (GPa)     =      54.48228      58.27913      56.38070
-------------------------------------------------------------------------------
  Velocity S-wave (km/s)  =       3.74471       3.87299       3.80939
  Velocity P-wave (km/s)  =       7.03467       7.13222       7.08361
-------------------------------------------------------------------------------
  Compressibility (1/GPa) =    0.00835944
-------------------------------------------------------------------------------
  Stress axis :                     x             y             z
-------------------------------------------------------------------------------
  Youngs Moduli (GPa)     =     139.15815     120.19737     141.36255
-------------------------------------------------------------------------------
  Poissons Ratio (x)      =                     0.31332       0.20403
  Poissons Ratio (y)      =       0.36274                     0.43259
  Poissons Ratio (z)      =       0.20085       0.36782
-------------------------------------------------------------------------------


  Piezoelectric Strain Matrix: (Units=C/m**2)

-------------------------------------------------------------------------------
  Indices      1         2         3         4         5         6    
-------------------------------------------------------------------------------
       x     0.00000   0.00000   0.00000   0.00000   0.00000   0.00000
       y     0.00000   0.00000   0.00000   0.00000   0.00000   0.00000
       z     0.00000   0.00000   0.00000   0.00000   0.00000   0.00000
-------------------------------------------------------------------------------


  Piezoelectric Stress Matrix: (Units=10**-11 C/N)

-------------------------------------------------------------------------------
  Indices      1         2         3         4         5         6    
-------------------------------------------------------------------------------
       x     0.00000   0.00000   0.00000   0.00000   0.00000   0.00000
       y     0.00000   0.00000   0.00000   0.00000   0.00000   0.00000
       z     0.00000   0.00000   0.00000   0.00000   0.00000   0.00000
-------------------------------------------------------------------------------


  Static dielectric constant tensor : 

-------------------------------------------------------------------------------
              x         y         z
-------------------------------------------------------------------------------
       x     4.80342   0.00000   0.00000
       y     0.00000   4.57835   0.00000
       z     0.00000   0.00000   4.57632
--------------------------------------------------------------------------------

  High frequency dielectric constant tensor : 

-------------------------------------------------------------------------------
              x         y         z
-------------------------------------------------------------------------------
       x     1.71038   0.00000   0.00000
       y     0.00000   1.71266   0.00000
       z     0.00000   0.00000   1.70780
-------------------------------------------------------------------------------

  Static refractive indices : 

-------------------------------------------------------------------------------
    1 =    2.13923      2 =    2.13971      3 =    2.19167
-------------------------------------------------------------------------------

  High frequency refractive indices : 

-------------------------------------------------------------------------------
    1 =    1.30683      2 =    1.30781      3 =    1.30869
-------------------------------------------------------------------------------


  Time to end of optimisation =       0.0851 seconds


  Peak dynamic memory used =       0.73 MB 


  Timing analysis for GULP :

--------------------------------------------------------------------------------
  Task / Subroutine                                          Time (Seconds)
--------------------------------------------------------------------------------
  Calculation of reciprocal space energy and derivatives          0.0026
  Calculation of reciprocal space energy using symmetry           0.0047
  Calculation of real space energy and derivatives                0.0209
  Calculation of real space energy using symmetry                 0.0522
  Symmetry generation of equivalent positions                     0.0004
--------------------------------------------------------------------------------
  Total CPU time                                                  0.0852
--------------------------------------------------------------------------------


  CIF file written as perov.cif                                               


  Job Finished at 09:41.46  6th April      2017                               

