********************************************************************************
*                       GENERAL UTILITY LATTICE PROGRAM                        *
*                                 Julian Gale                                  *
*                      Nanochemistry Research Institute                        *
*                           Department of Chemistry                            *
*                    Curtin University, Western Australia                      *
********************************************************************************
* Version = 4.3.2 * Last modified =  3rd March 2015                            *
********************************************************************************
*  optimise     - perform optimisation run                                     *
*  cell_only    - only optimise unit cell                                      *
*  property     - calculate properties for final geometry                      *
********************************************************************************

  Job Started  at 09:41.45  6th April      2017                               

  Number of CPUs =     1


  Total number of configurations input =   1

********************************************************************************
*  Input for Configuration =   1                                               *
********************************************************************************

  Formula = K4Ca4F12                                                    

  Number of irreducible atoms/shells =       6


  Total number atoms/shells =      32

  Dimensionality = 3               :  Bulk   


  Symmetry :

  Crystal family                   :  Orthorhombic
  Crystal class  (Groth - 1921)    :  Orthorhombic Bipyramidal             

  Space group (centrosymmetric)    :  P N M A         

  Patterson group                  :  P m m m  

  Cartesian lattice vectors (Angstroms) :

        6.223500    0.000000    0.000000
        0.000000    8.710300    0.000000
        0.000000    0.000000    6.118000

  Cell parameters (Angstroms/Degrees):

  a =       6.2235    alpha =  90.0000
  b =       8.7103    beta  =  90.0000
  c =       6.1180    gamma =  90.0000

  Initial cell volume =         331.647921 Angs**3

  Temperature of configuration =  0.000     K 

  Pressure of configuration =         0.000 GPa 

  Fractional coordinates of asymmetric unit :

--------------------------------------------------------------------------------
   No.  Atomic       x           y          z         Charge      Occupancy
        Label      (Frac)      (Frac)     (Frac)        (e)         (Frac)  
--------------------------------------------------------------------------------
      1 K     c    0.042000    0.250000    0.490600     1.10000    1.000000    
      2 Ca    c    0.000000    0.000000    0.000000     1.70000    1.000000    
      3 F     c    0.471500    0.250000    0.581200     0.37800    1.000000    
      4 F     c    0.291600    0.040400    0.206800     0.37800    1.000000    
      5 F     s    0.471500    0.250000    0.581200    -1.31133    1.000000    
      6 F     s    0.291600    0.040400    0.206800    -1.31133    1.000000    
--------------------------------------------------------------------------------



********************************************************************************
*  General input information                                                   *
********************************************************************************

  Species output for all configurations : 

--------------------------------------------------------------------------------
  Species    Type    Atomic    Atomic    Charge       Radii (Angs)     Library
                     Number     Mass       (e)     Cova   Ionic  VDW   Symbol
--------------------------------------------------------------------------------
    K        Core       19      39.10   1.100000   1.330  0.000  2.800          
    Ca       Core       20      40.08   1.700000   0.990  0.000  2.750          
    F        Core        9      19.00   0.378000   0.710  0.000  1.300          
    F        Shell       9       0.00  -1.311333   0.710  0.000  1.300          
--------------------------------------------------------------------------------


  Lattice summation method               =    Ewald          (3-D)
                                         =    Parry          (2-D)
                                         =    Saunders et al (1-D)
  Accuracy factor for lattice sums       =   12.000


  Time limit = Infinity

  Maximum range for interatomic potentials =    100000.000000 Angstroms

  General interatomic potentials :

--------------------------------------------------------------------------------
Atom  Types   Potential         A         B         C         D     Cutoffs(Ang)
  1     2                                                            Min    Max 
--------------------------------------------------------------------------------
K    c K    c Buckingham    0.219E+04 0.192      0.00      0.00     0.000 20.000
Ca   c F    s Buckingham    0.148E+04 0.266      0.00      0.00     0.000 20.000
F    s F    s Buckingham     912.     0.271      13.8      0.00     0.000 20.000
K    c F    s Buckingham    0.352E+04 0.267      0.00      0.00     0.000 20.000
F    c F    s Spring (c-s)   22.0      0.00      0.00      0.00     0.000  0.800
--------------------------------------------------------------------------------

********************************************************************************
*  Output for configuration   1                                                *
********************************************************************************


  Components of energy : 

--------------------------------------------------------------------------------
  Interatomic potentials     =          10.64846977 eV
  Monopole - monopole (real) =         -60.56680630 eV
  Monopole - monopole (recip)=         -74.53884981 eV
  Monopole - monopole (total)=        -135.10565611 eV
--------------------------------------------------------------------------------
  Total lattice energy       =        -124.45718634 eV
--------------------------------------------------------------------------------
  Total lattice energy       =          -12008.2160 kJ/(mole unit cells)
--------------------------------------------------------------------------------


  Number of variables =        3

  Maximum number of calculations  =          1000
  Maximum Hessian update interval =            10
  Maximum step size               =   1.000000000
  Maximum parameter tolerance     =   0.000010000
  Maximum function  tolerance     =   0.000010000
  Maximum gradient  tolerance     =   0.001000000
  Maximum gradient  component     =   0.010000000

  Symmetry constrained optimisation

  Symmetry used for second derivatives

  Cell parameters to be optimised using strains

  Newton-Raphson optimiser to be used

  BFGS hessian update to be used

  Start of bulk optimisation :

  Cycle:      0 Energy:      -124.457186  Gnorm:      6.865786  CPU:    0.008
  ** Hessian calculated **
  Cycle:      1 Energy:      -125.253357  Gnorm:      1.051245  CPU:    0.016
  Cycle:      2 Energy:      -125.267643  Gnorm:      0.223775  CPU:    0.024
  Cycle:      3 Energy:      -125.268490  Gnorm:      0.032843  CPU:    0.034
  Cycle:      4 Energy:      -125.268507  Gnorm:      0.015538  CPU:    0.042


  **** Optimisation achieved ****


  Final energy =    -125.26851229 eV
  Final Gnorm  =       0.00000685

  Components of energy : 

--------------------------------------------------------------------------------
  Interatomic potentials     =          15.75401581 eV
  Monopole - monopole (real) =         -63.21661750 eV
  Monopole - monopole (recip)=         -77.80591060 eV
  Monopole - monopole (total)=        -141.02252809 eV
--------------------------------------------------------------------------------
  Total lattice energy       =        -125.26851229 eV
--------------------------------------------------------------------------------
  Total lattice energy       =          -12086.4965 kJ/(mole unit cells)
--------------------------------------------------------------------------------

  Final asymmetric unit coordinates :

--------------------------------------------------------------------------------
   No.  Atomic        x           y           z         Radius
        Label       (Frac)      (Frac)      (Frac)       (Angs) 
--------------------------------------------------------------------------------
     1  K     c     0.042000    0.250000    0.490600    0.000000
     2  Ca    c     0.000000    0.000000    0.000000    0.000000
     3  F     c     0.471500    0.250000    0.581200    0.000000
     4  F     c     0.291600    0.040400    0.206800    0.000000
     5  F     s     0.471500    0.250000    0.581200    0.000000
     6  F     s     0.291600    0.040400    0.206800    0.000000
--------------------------------------------------------------------------------

  Final Cartesian lattice vectors (Angstroms) :

        5.982453    0.000000    0.000000
        0.000000    8.301139    0.000000
        0.000000    0.000000    5.871781


  Final cell parameters and derivatives :

--------------------------------------------------------------------------------
       a            5.982453 Angstrom     dE/de1(xx)     0.000011 eV/strain
       b            8.301139 Angstrom     dE/de2(yy)     0.000016 eV/strain
       c            5.871781 Angstrom     dE/de3(zz)     0.000006 eV/strain
       alpha       90.000000 Degrees      dE/de4(yz)     0.000000 eV/strain
       beta        90.000000 Degrees      dE/de5(xz)     0.000000 eV/strain
       gamma       90.000000 Degrees      dE/de6(xy)     0.000000 eV/strain
--------------------------------------------------------------------------------

  Primitive cell volume =           291.599553 Angs**3

  Density of cell =      3.102005 g/cm**3

  Non-primitive cell volume =           291.599553 Angs**3


  Final internal derivatives :

--------------------------------------------------------------------------------
   No.  Atomic          a             b             c           Radius
        Label          (eV)          (eV)          (eV)        (eV/Angs)
--------------------------------------------------------------------------------
      1 K     c       0.000000      0.000000      0.000000      0.000000
      2 Ca    c       0.000000      0.000000      0.000000      0.000000
      3 F     c       0.000000      0.000000      0.000000      0.000000
      4 F     c       0.000000      0.000000      0.000000      0.000000
      5 F     s       0.000000      0.000000      0.000000      0.000000
      6 F     s       0.000000      0.000000      0.000000      0.000000
--------------------------------------------------------------------------------
  Maximum abs         0.000000      0.000000      0.000000      0.000000
--------------------------------------------------------------------------------


  Born effective charge tensors : 

-------------------------------------------------------------------------------
  Atom             x           y             z
-------------------------------------------------------------------------------
   1 K     x       1.0265      0.0000     -0.0329
           y       0.0000      1.0650      0.0000
           z      -0.0356      0.0000      1.0168
-------------------------------------------------------------------------------
   2 Ca    x       1.4652      0.0108     -0.0119
           y       0.0039      1.4351     -0.0030
           z       0.0006      0.0132      1.4652
-------------------------------------------------------------------------------
   3 F     x      -0.7976      0.0000      0.0165
           y       0.0000     -0.8758      0.0000
           z       0.0238      0.0000     -0.7763
-------------------------------------------------------------------------------
   4 F     x      -0.8471      0.0197     -0.0439
           y       0.0251     -0.8122     -0.0238
           z      -0.0425     -0.0246     -0.8529
-------------------------------------------------------------------------------




  Elastic Constant Matrix: (Units=GPa)

-------------------------------------------------------------------------------
  Indices      1         2         3         4         5         6    
-------------------------------------------------------------------------------
       1     91.0176   38.9291   42.4942    0.0000    0.0000    0.0000
       2     38.9291   98.2044   42.5760    0.0000    0.0000    0.0000
       3     42.4942   42.5760   95.4471    0.0000    0.0000    0.0000
       4      0.0000    0.0000    0.0000   29.7028    0.0000    0.0000
       5      0.0000    0.0000    0.0000    0.0000   26.5948    0.0000
       6      0.0000    0.0000    0.0000    0.0000    0.0000   34.2180
-------------------------------------------------------------------------------


  Elastic Compliance Matrix: (Units=1/GPa)

-------------------------------------------------------------------------------
  Indices      1         2         3         4         5         6    
-------------------------------------------------------------------------------
       1    0.014912 -0.003760 -0.004962  0.000000  0.000000  0.000000
       2   -0.003760  0.013572 -0.004380  0.000000  0.000000  0.000000
       3   -0.004962 -0.004380  0.014640  0.000000  0.000000  0.000000
       4    0.000000  0.000000  0.000000  0.033667  0.000000  0.000000
       5    0.000000  0.000000  0.000000  0.000000  0.037601  0.000000
       6    0.000000  0.000000  0.000000  0.000000  0.000000  0.029224
-------------------------------------------------------------------------------

  Mechanical properties :

-------------------------------------------------------------------------------
  Convention :                    Reuss         Voigt         Hill
-------------------------------------------------------------------------------
  Bulk  Modulus (GPa)     =      59.10113      59.18532      59.14322
  Shear Modulus (GPa)     =      28.49653      28.81443      28.65548
-------------------------------------------------------------------------------
  Velocity S-wave (km/s)  =       3.03092       3.04778       3.03936
  Velocity P-wave (km/s)  =       5.59475       5.60937       5.60206
-------------------------------------------------------------------------------
  Compressibility (1/GPa) =    0.01692015
-------------------------------------------------------------------------------
  Stress axis :                     x             y             z
-------------------------------------------------------------------------------
  Youngs Moduli (GPa)     =      67.06215      73.67909      68.30673
-------------------------------------------------------------------------------
  Poissons Ratio (x)      =                     0.27703       0.33891
  Poissons Ratio (y)      =       0.25215                     0.29920
  Poissons Ratio (z)      =       0.33273       0.32273
-------------------------------------------------------------------------------


  Piezoelectric Strain Matrix: (Units=C/m**2)

-------------------------------------------------------------------------------
  Indices      1         2         3         4         5         6    
-------------------------------------------------------------------------------
       x     0.00000   0.00000   0.00000   0.00000   0.00000   0.00000
       y     0.00000   0.00000   0.00000   0.00000   0.00000   0.00000
       z     0.00000   0.00000   0.00000   0.00000   0.00000   0.00000
-------------------------------------------------------------------------------


  Piezoelectric Stress Matrix: (Units=10**-11 C/N)

-------------------------------------------------------------------------------
  Indices      1         2         3         4         5         6    
-------------------------------------------------------------------------------
       x     0.00000   0.00000   0.00000   0.00000   0.00000   0.00000
       y     0.00000   0.00000   0.00000   0.00000   0.00000   0.00000
       z     0.00000   0.00000   0.00000   0.00000   0.00000   0.00000
-------------------------------------------------------------------------------


  Static dielectric constant tensor : 

-------------------------------------------------------------------------------
              x         y         z
-------------------------------------------------------------------------------
       x     4.12783   0.00000   0.00000
       y     0.00000   4.62222   0.00000
       z     0.00000   0.00000   3.87834
--------------------------------------------------------------------------------

  High frequency dielectric constant tensor : 

-------------------------------------------------------------------------------
              x         y         z
-------------------------------------------------------------------------------
       x     1.56756   0.00000   0.00000
       y     0.00000   1.56926   0.00000
       z     0.00000   0.00000   1.56546
-------------------------------------------------------------------------------

  Static refractive indices : 

-------------------------------------------------------------------------------
    1 =    1.96935      2 =    2.03171      3 =    2.14993
-------------------------------------------------------------------------------

  High frequency refractive indices : 

-------------------------------------------------------------------------------
    1 =    1.25118      2 =    1.25202      3 =    1.25270
-------------------------------------------------------------------------------


  Time to end of optimisation =       0.0722 seconds


  Peak dynamic memory used =       0.73 MB 


  Timing analysis for GULP :

--------------------------------------------------------------------------------
  Task / Subroutine                                          Time (Seconds)
--------------------------------------------------------------------------------
  Calculation of reciprocal space energy and derivatives          0.0027
  Calculation of reciprocal space energy using symmetry           0.0044
  Calculation of real space energy and derivatives                0.0184
  Calculation of real space energy using symmetry                 0.0423
  Symmetry generation of equivalent positions                     0.0004
--------------------------------------------------------------------------------
  Total CPU time                                                  0.0722
--------------------------------------------------------------------------------


  CIF file written as perov.cif                                               


  Job Finished at 09:41.45  6th April      2017                               

