********************************************************************************
*                       GENERAL UTILITY LATTICE PROGRAM                        *
*                                 Julian Gale                                  *
*                      Nanochemistry Research Institute                        *
*                           Department of Chemistry                            *
*                    Curtin University, Western Australia                      *
********************************************************************************
* Version = 4.3.2 * Last modified =  3rd March 2015                            *
********************************************************************************
*  optimise     - perform optimisation run                                     *
*  cell_only    - only optimise unit cell                                      *
*  property     - calculate properties for final geometry                      *
********************************************************************************

  Job Started  at 09:41.49  6th April      2017                               

  Number of CPUs =     1


  Total number of configurations input =   1

********************************************************************************
*  Input for Configuration =   1                                               *
********************************************************************************

  Formula = K4Ca4F12                                                    

  Number of irreducible atoms/shells =       6


  Total number atoms/shells =      32

  Dimensionality = 3               :  Bulk   


  Symmetry :

  Crystal family                   :  Orthorhombic
  Crystal class  (Groth - 1921)    :  Orthorhombic Bipyramidal             

  Space group (centrosymmetric)    :  P N M A         

  Patterson group                  :  P m m m  

  Cartesian lattice vectors (Angstroms) :

        6.223500    0.000000    0.000000
        0.000000    8.710300    0.000000
        0.000000    0.000000    6.118000

  Cell parameters (Angstroms/Degrees):

  a =       6.2235    alpha =  90.0000
  b =       8.7103    beta  =  90.0000
  c =       6.1180    gamma =  90.0000

  Initial cell volume =         331.647921 Angs**3

  Temperature of configuration =  0.000     K 

  Pressure of configuration =         0.000 GPa 

  Fractional coordinates of asymmetric unit :

--------------------------------------------------------------------------------
   No.  Atomic       x           y          z         Charge      Occupancy
        Label      (Frac)      (Frac)     (Frac)        (e)         (Frac)  
--------------------------------------------------------------------------------
      1 K     c    0.042000    0.250000    0.490600     1.50000    1.000000    
      2 Ca    c    0.000000    0.000000    0.000000     1.70000    1.000000    
      3 F     c    0.471500    0.250000    0.581200     0.37800    1.000000    
      4 F     c    0.291600    0.040400    0.206800     0.37800    1.000000    
      5 F     s    0.471500    0.250000    0.581200    -1.44467    1.000000    
      6 F     s    0.291600    0.040400    0.206800    -1.44467    1.000000    
--------------------------------------------------------------------------------



********************************************************************************
*  General input information                                                   *
********************************************************************************

  Species output for all configurations : 

--------------------------------------------------------------------------------
  Species    Type    Atomic    Atomic    Charge       Radii (Angs)     Library
                     Number     Mass       (e)     Cova   Ionic  VDW   Symbol
--------------------------------------------------------------------------------
    K        Core       19      39.10   1.500000   1.330  0.000  2.800          
    Ca       Core       20      40.08   1.700000   0.990  0.000  2.750          
    F        Core        9      19.00   0.378000   0.710  0.000  1.300          
    F        Shell       9       0.00  -1.444667   0.710  0.000  1.300          
--------------------------------------------------------------------------------


  Lattice summation method               =    Ewald          (3-D)
                                         =    Parry          (2-D)
                                         =    Saunders et al (1-D)
  Accuracy factor for lattice sums       =   12.000


  Time limit = Infinity

  Maximum range for interatomic potentials =    100000.000000 Angstroms

  General interatomic potentials :

--------------------------------------------------------------------------------
Atom  Types   Potential         A         B         C         D     Cutoffs(Ang)
  1     2                                                            Min    Max 
--------------------------------------------------------------------------------
K    c K    c Buckingham    0.219E+04 0.192      0.00      0.00     0.000 20.000
Ca   c F    s Buckingham    0.148E+04 0.266      0.00      0.00     0.000 20.000
F    s F    s Buckingham     912.     0.271      13.8      0.00     0.000 20.000
K    c F    s Buckingham    0.352E+04 0.267      0.00      0.00     0.000 20.000
F    c F    s Spring (c-s)   26.8      0.00      0.00      0.00     0.000  0.800
--------------------------------------------------------------------------------

********************************************************************************
*  Output for configuration   1                                                *
********************************************************************************


  Components of energy : 

--------------------------------------------------------------------------------
  Interatomic potentials     =          10.64846977 eV
  Monopole - monopole (real) =         -75.03966648 eV
  Monopole - monopole (recip)=         -94.92167323 eV
  Monopole - monopole (total)=        -169.96133971 eV
--------------------------------------------------------------------------------
  Total lattice energy       =        -159.31286994 eV
--------------------------------------------------------------------------------
  Total lattice energy       =          -15371.2566 kJ/(mole unit cells)
--------------------------------------------------------------------------------


  Number of variables =        3

  Maximum number of calculations  =          1000
  Maximum Hessian update interval =            10
  Maximum step size               =   1.000000000
  Maximum parameter tolerance     =   0.000010000
  Maximum function  tolerance     =   0.000010000
  Maximum gradient  tolerance     =   0.001000000
  Maximum gradient  component     =   0.010000000

  Symmetry constrained optimisation

  Symmetry used for second derivatives

  Cell parameters to be optimised using strains

  Newton-Raphson optimiser to be used

  BFGS hessian update to be used

  Start of bulk optimisation :

  Cycle:      0 Energy:      -159.312870  Gnorm:     13.573811  CPU:    0.009
  ** Hessian calculated **
  Cycle:      1 Energy:      -162.137307  Gnorm:      3.820993  CPU:    0.017
  Cycle:      2 Energy:      -162.263940  Gnorm:      1.341570  CPU:    0.026
  Cycle:      3 Energy:      -162.286087  Gnorm:      0.292847  CPU:    0.034
  Cycle:      4 Energy:      -162.287496  Gnorm:      0.006386  CPU:    0.042


  **** Optimisation achieved ****


  Final energy =    -162.28749684 eV
  Final Gnorm  =       0.00028379

  Components of energy : 

--------------------------------------------------------------------------------
  Interatomic potentials     =          21.16508506 eV
  Monopole - monopole (real) =         -80.99309276 eV
  Monopole - monopole (recip)=        -102.45948913 eV
  Monopole - monopole (total)=        -183.45258189 eV
--------------------------------------------------------------------------------
  Total lattice energy       =        -162.28749684 eV
--------------------------------------------------------------------------------
  Total lattice energy       =          -15658.2627 kJ/(mole unit cells)
--------------------------------------------------------------------------------

  Final asymmetric unit coordinates :

--------------------------------------------------------------------------------
   No.  Atomic        x           y           z         Radius
        Label       (Frac)      (Frac)      (Frac)       (Angs) 
--------------------------------------------------------------------------------
     1  K     c     0.042000    0.250000    0.490600    0.000000
     2  Ca    c     0.000000    0.000000    0.000000    0.000000
     3  F     c     0.471500    0.250000    0.581200    0.000000
     4  F     c     0.291600    0.040400    0.206800    0.000000
     5  F     s     0.471500    0.250000    0.581200    0.000000
     6  F     s     0.291600    0.040400    0.206800    0.000000
--------------------------------------------------------------------------------

  Final Cartesian lattice vectors (Angstroms) :

        5.788360    0.000000    0.000000
        0.000000    8.027756    0.000000
        0.000000    0.000000    5.675039


  Final cell parameters and derivatives :

--------------------------------------------------------------------------------
       a            5.788360 Angstrom     dE/de1(xx)    -0.000330 eV/strain
       b            8.027756 Angstrom     dE/de2(yy)    -0.000702 eV/strain
       c            5.675039 Angstrom     dE/de3(zz)    -0.000351 eV/strain
       alpha       90.000000 Degrees      dE/de4(yz)     0.000000 eV/strain
       beta        90.000000 Degrees      dE/de5(xz)     0.000000 eV/strain
       gamma       90.000000 Degrees      dE/de6(xy)     0.000000 eV/strain
--------------------------------------------------------------------------------

  Primitive cell volume =           263.705087 Angs**3

  Density of cell =      3.430132 g/cm**3

  Non-primitive cell volume =           263.705087 Angs**3


  Final internal derivatives :

--------------------------------------------------------------------------------
   No.  Atomic          a             b             c           Radius
        Label          (eV)          (eV)          (eV)        (eV/Angs)
--------------------------------------------------------------------------------
      1 K     c       0.000000      0.000000      0.000000      0.000000
      2 Ca    c       0.000000      0.000000      0.000000      0.000000
      3 F     c       0.000000      0.000000      0.000000      0.000000
      4 F     c       0.000000      0.000000      0.000000      0.000000
      5 F     s       0.000000      0.000000      0.000000      0.000000
      6 F     s       0.000000      0.000000      0.000000      0.000000
--------------------------------------------------------------------------------
  Maximum abs         0.000000      0.000000      0.000000      0.000000
--------------------------------------------------------------------------------


  Born effective charge tensors : 

-------------------------------------------------------------------------------
  Atom             x           y             z
-------------------------------------------------------------------------------
   1 K     x       1.4634      0.0000     -0.0339
           y       0.0000      1.5091      0.0000
           z      -0.0384      0.0000      1.4521
-------------------------------------------------------------------------------
   2 Ca    x       1.3932      0.0153     -0.0062
           y       0.0087      1.3603      0.0028
           z      -0.0028      0.0095      1.3920
-------------------------------------------------------------------------------
   3 F     x      -0.9482      0.0000      0.0127
           y       0.0000     -0.9364      0.0000
           z       0.0162      0.0000     -0.9236
-------------------------------------------------------------------------------
   4 F     x      -0.9542      0.0221      0.0027
           y       0.0305     -0.9665     -0.0335
           z       0.0043     -0.0358     -0.9602
-------------------------------------------------------------------------------




  Elastic Constant Matrix: (Units=GPa)

-------------------------------------------------------------------------------
  Indices      1         2         3         4         5         6    
-------------------------------------------------------------------------------
       1    125.2678   52.4304   59.1910    0.0000    0.0000    0.0000
       2     52.4304  139.5320   56.0143    0.0000    0.0000    0.0000
       3     59.1910   56.0143  134.6871    0.0000    0.0000    0.0000
       4      0.0000    0.0000    0.0000   41.2422    0.0000    0.0000
       5      0.0000    0.0000    0.0000    0.0000   40.9431    0.0000
       6      0.0000    0.0000    0.0000    0.0000    0.0000   46.8745
-------------------------------------------------------------------------------


  Elastic Compliance Matrix: (Units=1/GPa)

-------------------------------------------------------------------------------
  Indices      1         2         3         4         5         6    
-------------------------------------------------------------------------------
       1    0.010799 -0.002584 -0.003671  0.000000  0.000000  0.000000
       2   -0.002584  0.009221 -0.002699  0.000000  0.000000  0.000000
       3   -0.003671 -0.002699  0.010161  0.000000  0.000000  0.000000
       4    0.000000  0.000000  0.000000  0.024247  0.000000  0.000000
       5    0.000000  0.000000  0.000000  0.000000  0.024424  0.000000
       6    0.000000  0.000000  0.000000  0.000000  0.000000  0.021334
-------------------------------------------------------------------------------

  Mechanical properties :

-------------------------------------------------------------------------------
  Convention :                    Reuss         Voigt         Hill
-------------------------------------------------------------------------------
  Bulk  Modulus (GPa)     =      81.48766      81.63981      81.56374
  Shear Modulus (GPa)     =      40.92117      41.26872      41.09494
-------------------------------------------------------------------------------
  Velocity S-wave (km/s)  =       3.45397       3.46861       3.46130
  Velocity P-wave (km/s)  =       6.29785       6.31209       6.30497
-------------------------------------------------------------------------------
  Compressibility (1/GPa) =    0.01227180
-------------------------------------------------------------------------------
  Stress axis :                     x             y             z
-------------------------------------------------------------------------------
  Youngs Moduli (GPa)     =      92.59964     108.44245      98.41872
-------------------------------------------------------------------------------
  Poissons Ratio (x)      =                     0.28023       0.36132
  Poissons Ratio (y)      =       0.23929                     0.26568
  Poissons Ratio (z)      =       0.33996       0.29273
-------------------------------------------------------------------------------


  Piezoelectric Strain Matrix: (Units=C/m**2)

-------------------------------------------------------------------------------
  Indices      1         2         3         4         5         6    
-------------------------------------------------------------------------------
       x     0.00000   0.00000   0.00000   0.00000   0.00000   0.00000
       y     0.00000   0.00000   0.00000   0.00000   0.00000   0.00000
       z     0.00000   0.00000   0.00000   0.00000   0.00000   0.00000
-------------------------------------------------------------------------------


  Piezoelectric Stress Matrix: (Units=10**-11 C/N)

-------------------------------------------------------------------------------
  Indices      1         2         3         4         5         6    
-------------------------------------------------------------------------------
       x     0.00000   0.00000   0.00000   0.00000   0.00000   0.00000
       y     0.00000   0.00000   0.00000   0.00000   0.00000   0.00000
       z     0.00000   0.00000   0.00000   0.00000   0.00000   0.00000
-------------------------------------------------------------------------------


  Static dielectric constant tensor : 

-------------------------------------------------------------------------------
              x         y         z
-------------------------------------------------------------------------------
       x     5.27969   0.00000   0.00000
       y     0.00000   7.23678   0.00000
       z     0.00000   0.00000   5.06571
--------------------------------------------------------------------------------

  High frequency dielectric constant tensor : 

-------------------------------------------------------------------------------
              x         y         z
-------------------------------------------------------------------------------
       x     1.62672   0.00000   0.00000
       y     0.00000   1.62919   0.00000
       z     0.00000   0.00000   1.62418
-------------------------------------------------------------------------------

  Static refractive indices : 

-------------------------------------------------------------------------------
    1 =    2.25071      2 =    2.29776      3 =    2.69013
-------------------------------------------------------------------------------

  High frequency refractive indices : 

-------------------------------------------------------------------------------
    1 =    1.27444      2 =    1.27543      3 =    1.27640
-------------------------------------------------------------------------------


  Time to end of optimisation =       0.0754 seconds


  Peak dynamic memory used =       0.73 MB 


  Timing analysis for GULP :

--------------------------------------------------------------------------------
  Task / Subroutine                                          Time (Seconds)
--------------------------------------------------------------------------------
  Calculation of reciprocal space energy and derivatives          0.0026
  Calculation of reciprocal space energy using symmetry           0.0043
  Calculation of real space energy and derivatives                0.0205
  Calculation of real space energy using symmetry                 0.0437
  Symmetry generation of equivalent positions                     0.0004
--------------------------------------------------------------------------------
  Total CPU time                                                  0.0755
--------------------------------------------------------------------------------


  CIF file written as perov.cif                                               


  Job Finished at 09:41.49  6th April      2017                               

