********************************************************************************
*                       GENERAL UTILITY LATTICE PROGRAM                        *
*                                 Julian Gale                                  *
*                      Nanochemistry Research Institute                        *
*                           Department of Chemistry                            *
*                    Curtin University, Western Australia                      *
********************************************************************************
* Version = 4.3.2 * Last modified =  3rd March 2015                            *
********************************************************************************
*  optimise     - perform optimisation run                                     *
*  cell_only    - only optimise unit cell                                      *
*  property     - calculate properties for final geometry                      *
********************************************************************************

  Job Started  at 09:41.46  6th April      2017                               

  Number of CPUs =     1


  Total number of configurations input =   1

********************************************************************************
*  Input for Configuration =   1                                               *
********************************************************************************

  Formula = K4Ca4F12                                                    

  Number of irreducible atoms/shells =       6


  Total number atoms/shells =      32

  Dimensionality = 3               :  Bulk   


  Symmetry :

  Crystal family                   :  Orthorhombic
  Crystal class  (Groth - 1921)    :  Orthorhombic Bipyramidal             

  Space group (centrosymmetric)    :  P N M A         

  Patterson group                  :  P m m m  

  Cartesian lattice vectors (Angstroms) :

        6.223500    0.000000    0.000000
        0.000000    8.710300    0.000000
        0.000000    0.000000    6.118000

  Cell parameters (Angstroms/Degrees):

  a =       6.2235    alpha =  90.0000
  b =       8.7103    beta  =  90.0000
  c =       6.1180    gamma =  90.0000

  Initial cell volume =         331.647921 Angs**3

  Temperature of configuration =  0.000     K 

  Pressure of configuration =         0.000 GPa 

  Fractional coordinates of asymmetric unit :

--------------------------------------------------------------------------------
   No.  Atomic       x           y          z         Charge      Occupancy
        Label      (Frac)      (Frac)     (Frac)        (e)         (Frac)  
--------------------------------------------------------------------------------
      1 K     c    0.042000    0.250000    0.490600     1.20000    1.000000    
      2 Ca    c    0.000000    0.000000    0.000000     2.10000    1.000000    
      3 F     c    0.471500    0.250000    0.581200     0.37800    1.000000    
      4 F     c    0.291600    0.040400    0.206800     0.37800    1.000000    
      5 F     s    0.471500    0.250000    0.581200    -1.47800    1.000000    
      6 F     s    0.291600    0.040400    0.206800    -1.47800    1.000000    
--------------------------------------------------------------------------------



********************************************************************************
*  General input information                                                   *
********************************************************************************

  Species output for all configurations : 

--------------------------------------------------------------------------------
  Species    Type    Atomic    Atomic    Charge       Radii (Angs)     Library
                     Number     Mass       (e)     Cova   Ionic  VDW   Symbol
--------------------------------------------------------------------------------
    K        Core       19      39.10   1.200000   1.330  0.000  2.800          
    Ca       Core       20      40.08   2.100000   0.990  0.000  2.750          
    F        Core        9      19.00   0.378000   0.710  0.000  1.300          
    F        Shell       9       0.00  -1.478000   0.710  0.000  1.300          
--------------------------------------------------------------------------------


  Lattice summation method               =    Ewald          (3-D)
                                         =    Parry          (2-D)
                                         =    Saunders et al (1-D)
  Accuracy factor for lattice sums       =   12.000


  Time limit = Infinity

  Maximum range for interatomic potentials =    100000.000000 Angstroms

  General interatomic potentials :

--------------------------------------------------------------------------------
Atom  Types   Potential         A         B         C         D     Cutoffs(Ang)
  1     2                                                            Min    Max 
--------------------------------------------------------------------------------
K    c K    c Buckingham    0.219E+04 0.192      0.00      0.00     0.000 20.000
Ca   c F    s Buckingham    0.148E+04 0.266      0.00      0.00     0.000 20.000
F    s F    s Buckingham     912.     0.271      13.8      0.00     0.000 20.000
K    c F    s Buckingham    0.352E+04 0.267      0.00      0.00     0.000 20.000
F    c F    s Spring (c-s)   28.0      0.00      0.00      0.00     0.000  0.800
--------------------------------------------------------------------------------

********************************************************************************
*  Output for configuration   1                                                *
********************************************************************************


  Components of energy : 

--------------------------------------------------------------------------------
  Interatomic potentials     =          10.64846977 eV
  Monopole - monopole (real) =         -85.97440571 eV
  Monopole - monopole (recip)=        -105.25741293 eV
  Monopole - monopole (total)=        -191.23181864 eV
--------------------------------------------------------------------------------
  Total lattice energy       =        -180.58334887 eV
--------------------------------------------------------------------------------
  Total lattice energy       =          -17423.5327 kJ/(mole unit cells)
--------------------------------------------------------------------------------


  Number of variables =        3

  Maximum number of calculations  =          1000
  Maximum Hessian update interval =            10
  Maximum step size               =   1.000000000
  Maximum parameter tolerance     =   0.000010000
  Maximum function  tolerance     =   0.000010000
  Maximum gradient  tolerance     =   0.001000000
  Maximum gradient  component     =   0.010000000

  Symmetry constrained optimisation

  Symmetry used for second derivatives

  Cell parameters to be optimised using strains

  Newton-Raphson optimiser to be used

  BFGS hessian update to be used

  Start of bulk optimisation :

  Cycle:      0 Energy:      -180.583349  Gnorm:     17.667008  CPU:    0.008
  ** Hessian calculated **
  Cycle:      1 Energy:      -184.903208  Gnorm:      7.953982  CPU:    0.017
  Cycle:      2 Energy:      -185.427036  Gnorm:      1.102190  CPU:    0.027
  Cycle:      3 Energy:      -185.454165  Gnorm:      0.089049  CPU:    0.036
  Cycle:      4 Energy:      -185.454251  Gnorm:      0.002156  CPU:    0.046


  **** Optimisation achieved ****


  Final energy =    -185.45425113 eV
  Final Gnorm  =       0.00038810

  Components of energy : 

--------------------------------------------------------------------------------
  Interatomic potentials     =          24.64994937 eV
  Monopole - monopole (real) =         -94.45503027 eV
  Monopole - monopole (recip)=        -115.64917024 eV
  Monopole - monopole (total)=        -210.10420050 eV
--------------------------------------------------------------------------------
  Total lattice energy       =        -185.45425113 eV
--------------------------------------------------------------------------------
  Total lattice energy       =          -17893.5003 kJ/(mole unit cells)
--------------------------------------------------------------------------------

  Final asymmetric unit coordinates :

--------------------------------------------------------------------------------
   No.  Atomic        x           y           z         Radius
        Label       (Frac)      (Frac)      (Frac)       (Angs) 
--------------------------------------------------------------------------------
     1  K     c     0.042000    0.250000    0.490600    0.000000
     2  Ca    c     0.000000    0.000000    0.000000    0.000000
     3  F     c     0.471500    0.250000    0.581200    0.000000
     4  F     c     0.291600    0.040400    0.206800    0.000000
     5  F     s     0.471500    0.250000    0.581200    0.000000
     6  F     s     0.291600    0.040400    0.206800    0.000000
--------------------------------------------------------------------------------

  Final Cartesian lattice vectors (Angstroms) :

        5.684705    0.000000    0.000000
        0.000000    7.884013    0.000000
        0.000000    0.000000    5.578929


  Final cell parameters and derivatives :

--------------------------------------------------------------------------------
       a            5.684705 Angstrom     dE/de1(xx)     0.000792 eV/strain
       b            7.884013 Angstrom     dE/de2(yy)    -0.000017 eV/strain
       c            5.578929 Angstrom     dE/de3(zz)    -0.000854 eV/strain
       alpha       90.000000 Degrees      dE/de4(yz)     0.000000 eV/strain
       beta        90.000000 Degrees      dE/de5(xz)     0.000000 eV/strain
       gamma       90.000000 Degrees      dE/de6(xy)     0.000000 eV/strain
--------------------------------------------------------------------------------

  Primitive cell volume =           250.038041 Angs**3

  Density of cell =      3.617622 g/cm**3

  Non-primitive cell volume =           250.038041 Angs**3


  Final internal derivatives :

--------------------------------------------------------------------------------
   No.  Atomic          a             b             c           Radius
        Label          (eV)          (eV)          (eV)        (eV/Angs)
--------------------------------------------------------------------------------
      1 K     c       0.000000      0.000000      0.000000      0.000000
      2 Ca    c       0.000000      0.000000      0.000000      0.000000
      3 F     c       0.000000      0.000000      0.000000      0.000000
      4 F     c       0.000000      0.000000      0.000000      0.000000
      5 F     s       0.000000      0.000000      0.000000      0.000000
      6 F     s       0.000000      0.000000      0.000000      0.000000
--------------------------------------------------------------------------------
  Maximum abs         0.000000      0.000000      0.000000      0.000000
--------------------------------------------------------------------------------


  Born effective charge tensors : 

-------------------------------------------------------------------------------
  Atom             x           y             z
-------------------------------------------------------------------------------
   1 K     x       1.0611      0.0000     -0.0483
           y       0.0000      1.1126      0.0000
           z      -0.0507      0.0000      1.0491
-------------------------------------------------------------------------------
   2 Ca    x       1.8642      0.0131     -0.0284
           y      -0.0004      1.8236     -0.0176
           z       0.0085      0.0287      1.8649
-------------------------------------------------------------------------------
   3 F     x      -0.8979      0.0000      0.0245
           y       0.0000     -1.1043      0.0000
           z       0.0409      0.0000     -0.8729
-------------------------------------------------------------------------------
   4 F     x      -1.0137      0.0246     -0.1094
           y       0.0313     -0.9160     -0.0254
           z      -0.1072     -0.0255     -1.0206
-------------------------------------------------------------------------------




  Elastic Constant Matrix: (Units=GPa)

-------------------------------------------------------------------------------
  Indices      1         2         3         4         5         6    
-------------------------------------------------------------------------------
       1    149.5692   66.5294   62.7172    0.0000    0.0000    0.0000
       2     66.5294  152.9292   73.3051    0.0000    0.0000    0.0000
       3     62.7172   73.3051  160.0208    0.0000    0.0000    0.0000
       4      0.0000    0.0000    0.0000   53.7285    0.0000    0.0000
       5      0.0000    0.0000    0.0000    0.0000   37.1648    0.0000
       6      0.0000    0.0000    0.0000    0.0000    0.0000   61.4119
-------------------------------------------------------------------------------


  Elastic Compliance Matrix: (Units=1/GPa)

-------------------------------------------------------------------------------
  Indices      1         2         3         4         5         6    
-------------------------------------------------------------------------------
       1    0.008848 -0.002802 -0.002184  0.000000  0.000000  0.000000
       2   -0.002802  0.009266 -0.003147  0.000000  0.000000  0.000000
       3   -0.002184 -0.003147  0.008547  0.000000  0.000000  0.000000
       4    0.000000  0.000000  0.000000  0.018612  0.000000  0.000000
       5    0.000000  0.000000  0.000000  0.000000  0.026907  0.000000
       6    0.000000  0.000000  0.000000  0.000000  0.000000  0.016283
-------------------------------------------------------------------------------

  Mechanical properties :

-------------------------------------------------------------------------------
  Convention :                    Reuss         Voigt         Hill
-------------------------------------------------------------------------------
  Bulk  Modulus (GPa)     =      96.19890      96.40252      96.30071
  Shear Modulus (GPa)     =      46.21280      47.79222      47.00251
-------------------------------------------------------------------------------
  Velocity S-wave (km/s)  =       3.57412       3.63469       3.60453
  Velocity P-wave (km/s)  =       6.60486       6.65302       6.62898
-------------------------------------------------------------------------------
  Compressibility (1/GPa) =    0.01039513
-------------------------------------------------------------------------------
  Stress axis :                     x             y             z
-------------------------------------------------------------------------------
  Youngs Moduli (GPa)     =     113.01708     107.91731     117.00475
-------------------------------------------------------------------------------
  Poissons Ratio (x)      =                     0.30242       0.25556
  Poissons Ratio (y)      =       0.31671                     0.36816
  Poissons Ratio (z)      =       0.24685       0.33957
-------------------------------------------------------------------------------


  Piezoelectric Strain Matrix: (Units=C/m**2)

-------------------------------------------------------------------------------
  Indices      1         2         3         4         5         6    
-------------------------------------------------------------------------------
       x     0.00000   0.00000   0.00000   0.00000   0.00000   0.00000
       y     0.00000   0.00000   0.00000   0.00000   0.00000   0.00000
       z     0.00000   0.00000   0.00000   0.00000   0.00000   0.00000
-------------------------------------------------------------------------------


  Piezoelectric Stress Matrix: (Units=10**-11 C/N)

-------------------------------------------------------------------------------
  Indices      1         2         3         4         5         6    
-------------------------------------------------------------------------------
       x     0.00000   0.00000   0.00000   0.00000   0.00000   0.00000
       y     0.00000   0.00000   0.00000   0.00000   0.00000   0.00000
       z     0.00000   0.00000   0.00000   0.00000   0.00000   0.00000
-------------------------------------------------------------------------------


  Static dielectric constant tensor : 

-------------------------------------------------------------------------------
              x         y         z
-------------------------------------------------------------------------------
       x     4.35246   0.00000   0.00000
       y     0.00000   4.49847   0.00000
       z     0.00000   0.00000   4.12756
--------------------------------------------------------------------------------

  High frequency dielectric constant tensor : 

-------------------------------------------------------------------------------
              x         y         z
-------------------------------------------------------------------------------
       x     1.65936   0.00000   0.00000
       y     0.00000   1.66160   0.00000
       z     0.00000   0.00000   1.65685
-------------------------------------------------------------------------------

  Static refractive indices : 

-------------------------------------------------------------------------------
    1 =    2.03164      2 =    2.08626      3 =    2.12096
-------------------------------------------------------------------------------

  High frequency refractive indices : 

-------------------------------------------------------------------------------
    1 =    1.28719      2 =    1.28816      3 =    1.28903
-------------------------------------------------------------------------------


  Time to end of optimisation =       0.0794 seconds


  Peak dynamic memory used =       0.73 MB 


  Timing analysis for GULP :

--------------------------------------------------------------------------------
  Task / Subroutine                                          Time (Seconds)
--------------------------------------------------------------------------------
  Calculation of reciprocal space energy and derivatives          0.0026
  Calculation of reciprocal space energy using symmetry           0.0046
  Calculation of real space energy and derivatives                0.0205
  Calculation of real space energy using symmetry                 0.0473
  Symmetry generation of equivalent positions                     0.0004
--------------------------------------------------------------------------------
  Total CPU time                                                  0.0795
--------------------------------------------------------------------------------


  CIF file written as perov.cif                                               


  Job Finished at 09:41.47  6th April      2017                               

