********************************************************************************
*                       GENERAL UTILITY LATTICE PROGRAM                        *
*                                 Julian Gale                                  *
*                      Nanochemistry Research Institute                        *
*                           Department of Chemistry                            *
*                    Curtin University, Western Australia                      *
********************************************************************************
* Version = 4.3.2 * Last modified =  3rd March 2015                            *
********************************************************************************
*  optimise     - perform optimisation run                                     *
*  cell_only    - only optimise unit cell                                      *
*  property     - calculate properties for final geometry                      *
********************************************************************************

  Job Started  at 09:41.46  6th April      2017                               

  Number of CPUs =     1


  Total number of configurations input =   1

********************************************************************************
*  Input for Configuration =   1                                               *
********************************************************************************

  Formula = K4Ca4F12                                                    

  Number of irreducible atoms/shells =       6


  Total number atoms/shells =      32

  Dimensionality = 3               :  Bulk   


  Symmetry :

  Crystal family                   :  Orthorhombic
  Crystal class  (Groth - 1921)    :  Orthorhombic Bipyramidal             

  Space group (centrosymmetric)    :  P N M A         

  Patterson group                  :  P m m m  

  Cartesian lattice vectors (Angstroms) :

        6.223500    0.000000    0.000000
        0.000000    8.710300    0.000000
        0.000000    0.000000    6.118000

  Cell parameters (Angstroms/Degrees):

  a =       6.2235    alpha =  90.0000
  b =       8.7103    beta  =  90.0000
  c =       6.1180    gamma =  90.0000

  Initial cell volume =         331.647921 Angs**3

  Temperature of configuration =  0.000     K 

  Pressure of configuration =         0.000 GPa 

  Fractional coordinates of asymmetric unit :

--------------------------------------------------------------------------------
   No.  Atomic       x           y          z         Charge      Occupancy
        Label      (Frac)      (Frac)     (Frac)        (e)         (Frac)  
--------------------------------------------------------------------------------
      1 K     c    0.042000    0.250000    0.490600     1.20000    1.000000    
      2 Ca    c    0.000000    0.000000    0.000000     1.90000    1.000000    
      3 F     c    0.471500    0.250000    0.581200     0.37800    1.000000    
      4 F     c    0.291600    0.040400    0.206800     0.37800    1.000000    
      5 F     s    0.471500    0.250000    0.581200    -1.41133    1.000000    
      6 F     s    0.291600    0.040400    0.206800    -1.41133    1.000000    
--------------------------------------------------------------------------------



********************************************************************************
*  General input information                                                   *
********************************************************************************

  Species output for all configurations : 

--------------------------------------------------------------------------------
  Species    Type    Atomic    Atomic    Charge       Radii (Angs)     Library
                     Number     Mass       (e)     Cova   Ionic  VDW   Symbol
--------------------------------------------------------------------------------
    K        Core       19      39.10   1.200000   1.330  0.000  2.800          
    Ca       Core       20      40.08   1.900000   0.990  0.000  2.750          
    F        Core        9      19.00   0.378000   0.710  0.000  1.300          
    F        Shell       9       0.00  -1.411333   0.710  0.000  1.300          
--------------------------------------------------------------------------------


  Lattice summation method               =    Ewald          (3-D)
                                         =    Parry          (2-D)
                                         =    Saunders et al (1-D)
  Accuracy factor for lattice sums       =   12.000


  Time limit = Infinity

  Maximum range for interatomic potentials =    100000.000000 Angstroms

  General interatomic potentials :

--------------------------------------------------------------------------------
Atom  Types   Potential         A         B         C         D     Cutoffs(Ang)
  1     2                                                            Min    Max 
--------------------------------------------------------------------------------
K    c K    c Buckingham    0.219E+04 0.192      0.00      0.00     0.000 20.000
Ca   c F    s Buckingham    0.148E+04 0.266      0.00      0.00     0.000 20.000
F    s F    s Buckingham     912.     0.271      13.8      0.00     0.000 20.000
K    c F    s Buckingham    0.352E+04 0.267      0.00      0.00     0.000 20.000
F    c F    s Spring (c-s)   25.5      0.00      0.00      0.00     0.000  0.800
--------------------------------------------------------------------------------

********************************************************************************
*  Output for configuration   1                                                *
********************************************************************************


  Components of energy : 

--------------------------------------------------------------------------------
  Interatomic potentials     =          10.64846977 eV
  Monopole - monopole (real) =         -74.55472308 eV
  Monopole - monopole (recip)=         -91.63837415 eV
  Monopole - monopole (total)=        -166.19309723 eV
--------------------------------------------------------------------------------
  Total lattice energy       =        -155.54462746 eV
--------------------------------------------------------------------------------
  Total lattice energy       =          -15007.6788 kJ/(mole unit cells)
--------------------------------------------------------------------------------


  Number of variables =        3

  Maximum number of calculations  =          1000
  Maximum Hessian update interval =            10
  Maximum step size               =   1.000000000
  Maximum parameter tolerance     =   0.000010000
  Maximum function  tolerance     =   0.000010000
  Maximum gradient  tolerance     =   0.001000000
  Maximum gradient  component     =   0.010000000

  Symmetry constrained optimisation

  Symmetry used for second derivatives

  Cell parameters to be optimised using strains

  Newton-Raphson optimiser to be used

  BFGS hessian update to be used

  Start of bulk optimisation :

  Cycle:      0 Energy:      -155.544627  Gnorm:     12.848083  CPU:    0.008
  ** Hessian calculated **
  Cycle:      1 Energy:      -158.098405  Gnorm:      3.469722  CPU:    0.017
  Cycle:      2 Energy:      -158.204623  Gnorm:      1.196579  CPU:    0.025
  Cycle:      3 Energy:      -158.224120  Gnorm:      0.418470  CPU:    0.033
  Cycle:      4 Energy:      -158.226598  Gnorm:      0.001252  CPU:    0.041


  **** Optimisation achieved ****


  Final energy =    -158.22659804 eV
  Final Gnorm  =       0.00006969

  Components of energy : 

--------------------------------------------------------------------------------
  Interatomic potentials     =          20.56140873 eV
  Monopole - monopole (real) =         -80.20142703 eV
  Monopole - monopole (recip)=         -98.58657975 eV
  Monopole - monopole (total)=        -178.78800678 eV
--------------------------------------------------------------------------------
  Total lattice energy       =        -158.22659804 eV
--------------------------------------------------------------------------------
  Total lattice energy       =          -15266.4480 kJ/(mole unit cells)
--------------------------------------------------------------------------------

  Final asymmetric unit coordinates :

--------------------------------------------------------------------------------
   No.  Atomic        x           y           z         Radius
        Label       (Frac)      (Frac)      (Frac)       (Angs) 
--------------------------------------------------------------------------------
     1  K     c     0.042000    0.250000    0.490600    0.000000
     2  Ca    c     0.000000    0.000000    0.000000    0.000000
     3  F     c     0.471500    0.250000    0.581200    0.000000
     4  F     c     0.291600    0.040400    0.206800    0.000000
     5  F     s     0.471500    0.250000    0.581200    0.000000
     6  F     s     0.291600    0.040400    0.206800    0.000000
--------------------------------------------------------------------------------

  Final Cartesian lattice vectors (Angstroms) :

        5.805460    0.000000    0.000000
        0.000000    8.053027    0.000000
        0.000000    0.000000    5.697171


  Final cell parameters and derivatives :

--------------------------------------------------------------------------------
       a            5.805460 Angstrom     dE/de1(xx)    -0.000100 eV/strain
       b            8.053027 Angstrom     dE/de2(yy)    -0.000184 eV/strain
       c            5.697171 Angstrom     dE/de3(zz)     0.000004 eV/strain
       alpha       90.000000 Degrees      dE/de4(yz)     0.000000 eV/strain
       beta        90.000000 Degrees      dE/de5(xz)     0.000000 eV/strain
       gamma       90.000000 Degrees      dE/de6(xy)     0.000000 eV/strain
--------------------------------------------------------------------------------

  Primitive cell volume =           266.351463 Angs**3

  Density of cell =      3.396051 g/cm**3

  Non-primitive cell volume =           266.351463 Angs**3


  Final internal derivatives :

--------------------------------------------------------------------------------
   No.  Atomic          a             b             c           Radius
        Label          (eV)          (eV)          (eV)        (eV/Angs)
--------------------------------------------------------------------------------
      1 K     c       0.000000      0.000000      0.000000      0.000000
      2 Ca    c       0.000000      0.000000      0.000000      0.000000
      3 F     c       0.000000      0.000000      0.000000      0.000000
      4 F     c       0.000000      0.000000      0.000000      0.000000
      5 F     s       0.000000      0.000000      0.000000      0.000000
      6 F     s       0.000000      0.000000      0.000000      0.000000
--------------------------------------------------------------------------------
  Maximum abs         0.000000      0.000000      0.000000      0.000000
--------------------------------------------------------------------------------


  Born effective charge tensors : 

-------------------------------------------------------------------------------
  Atom             x           y             z
-------------------------------------------------------------------------------
   1 K     x       1.0996      0.0000     -0.0401
           y       0.0000      1.1452      0.0000
           z      -0.0433      0.0000      1.0884
-------------------------------------------------------------------------------
   2 Ca    x       1.6516      0.0124     -0.0179
           y       0.0029      1.6162     -0.0080
           z       0.0031      0.0190      1.6519
-------------------------------------------------------------------------------
   3 F     x      -0.8670      0.0000      0.0202
           y       0.0000     -0.9938      0.0000
           z       0.0312      0.0000     -0.8434
-------------------------------------------------------------------------------
   4 F     x      -0.9421      0.0223     -0.0687
           y       0.0288     -0.8838     -0.0259
           z      -0.0669     -0.0266     -0.9485
-------------------------------------------------------------------------------




  Elastic Constant Matrix: (Units=GPa)

-------------------------------------------------------------------------------
  Indices      1         2         3         4         5         6    
-------------------------------------------------------------------------------
       1    122.4049   53.2331   53.8684    0.0000    0.0000    0.0000
       2     53.2331  128.7773   58.2144    0.0000    0.0000    0.0000
       3     53.8684   58.2144  130.1419    0.0000    0.0000    0.0000
       4      0.0000    0.0000    0.0000   42.2155    0.0000    0.0000
       5      0.0000    0.0000    0.0000    0.0000   33.3452    0.0000
       6      0.0000    0.0000    0.0000    0.0000    0.0000   48.2975
-------------------------------------------------------------------------------


  Elastic Compliance Matrix: (Units=1/GPa)

-------------------------------------------------------------------------------
  Indices      1         2         3         4         5         6    
-------------------------------------------------------------------------------
       1    0.010888 -0.003088 -0.003126  0.000000  0.000000  0.000000
       2   -0.003088  0.010609 -0.003468  0.000000  0.000000  0.000000
       3   -0.003126 -0.003468  0.010529  0.000000  0.000000  0.000000
       4    0.000000  0.000000  0.000000  0.023688  0.000000  0.000000
       5    0.000000  0.000000  0.000000  0.000000  0.029989  0.000000
       6    0.000000  0.000000  0.000000  0.000000  0.000000  0.020705
-------------------------------------------------------------------------------

  Mechanical properties :

-------------------------------------------------------------------------------
  Convention :                    Reuss         Voigt         Hill
-------------------------------------------------------------------------------
  Bulk  Modulus (GPa)     =      78.96332      79.10622      79.03477
  Shear Modulus (GPa)     =      38.46399      39.17217      38.81808
-------------------------------------------------------------------------------
  Velocity S-wave (km/s)  =       3.36543       3.39627       3.38088
  Velocity P-wave (km/s)  =       6.19298       6.21877       6.20589
-------------------------------------------------------------------------------
  Compressibility (1/GPa) =    0.01266411
-------------------------------------------------------------------------------
  Stress axis :                     x             y             z
-------------------------------------------------------------------------------
  Youngs Moduli (GPa)     =      91.84415      94.25658      94.97829
-------------------------------------------------------------------------------
  Poissons Ratio (x)      =                     0.29106       0.29685
  Poissons Ratio (y)      =       0.28361                     0.32934
  Poissons Ratio (z)      =       0.28706       0.32684
-------------------------------------------------------------------------------


  Piezoelectric Strain Matrix: (Units=C/m**2)

-------------------------------------------------------------------------------
  Indices      1         2         3         4         5         6    
-------------------------------------------------------------------------------
       x     0.00000   0.00000   0.00000   0.00000   0.00000   0.00000
       y     0.00000   0.00000   0.00000   0.00000   0.00000   0.00000
       z     0.00000   0.00000   0.00000   0.00000   0.00000   0.00000
-------------------------------------------------------------------------------


  Piezoelectric Stress Matrix: (Units=10**-11 C/N)

-------------------------------------------------------------------------------
  Indices      1         2         3         4         5         6    
-------------------------------------------------------------------------------
       x     0.00000   0.00000   0.00000   0.00000   0.00000   0.00000
       y     0.00000   0.00000   0.00000   0.00000   0.00000   0.00000
       z     0.00000   0.00000   0.00000   0.00000   0.00000   0.00000
-------------------------------------------------------------------------------


  Static dielectric constant tensor : 

-------------------------------------------------------------------------------
              x         y         z
-------------------------------------------------------------------------------
       x     4.26648   0.00000   0.00000
       y     0.00000   4.62986   0.00000
       z     0.00000   0.00000   4.02751
--------------------------------------------------------------------------------

  High frequency dielectric constant tensor : 

-------------------------------------------------------------------------------
              x         y         z
-------------------------------------------------------------------------------
       x     1.61946   0.00000   0.00000
       y     0.00000   1.62152   0.00000
       z     0.00000   0.00000   1.61709
-------------------------------------------------------------------------------

  Static refractive indices : 

-------------------------------------------------------------------------------
    1 =    2.00687      2 =    2.06555      3 =    2.15171
-------------------------------------------------------------------------------

  High frequency refractive indices : 

-------------------------------------------------------------------------------
    1 =    1.27165      2 =    1.27258      3 =    1.27339
-------------------------------------------------------------------------------


  Time to end of optimisation =       0.0724 seconds


  Peak dynamic memory used =       0.73 MB 


  Timing analysis for GULP :

--------------------------------------------------------------------------------
  Task / Subroutine                                          Time (Seconds)
--------------------------------------------------------------------------------
  Calculation of reciprocal space energy and derivatives          0.0026
  Calculation of reciprocal space energy using symmetry           0.0042
  Calculation of real space energy and derivatives                0.0192
  Calculation of real space energy using symmetry                 0.0419
  Symmetry generation of equivalent positions                     0.0004
--------------------------------------------------------------------------------
  Total CPU time                                                  0.0724
--------------------------------------------------------------------------------


  CIF file written as perov.cif                                               


  Job Finished at 09:41.46  6th April      2017                               

