********************************************************************************
*                       GENERAL UTILITY LATTICE PROGRAM                        *
*                                 Julian Gale                                  *
*                      Nanochemistry Research Institute                        *
*                           Department of Chemistry                            *
*                    Curtin University, Western Australia                      *
********************************************************************************
* Version = 4.3.2 * Last modified =  3rd March 2015                            *
********************************************************************************
*  optimise     - perform optimisation run                                     *
*  cell_only    - only optimise unit cell                                      *
*  property     - calculate properties for final geometry                      *
********************************************************************************

  Job Started  at 09:41.48  6th April      2017                               

  Number of CPUs =     1


  Total number of configurations input =   1

********************************************************************************
*  Input for Configuration =   1                                               *
********************************************************************************

  Formula = K4Ca4F12                                                    

  Number of irreducible atoms/shells =       6


  Total number atoms/shells =      32

  Dimensionality = 3               :  Bulk   


  Symmetry :

  Crystal family                   :  Orthorhombic
  Crystal class  (Groth - 1921)    :  Orthorhombic Bipyramidal             

  Space group (centrosymmetric)    :  P N M A         

  Patterson group                  :  P m m m  

  Cartesian lattice vectors (Angstroms) :

        6.223500    0.000000    0.000000
        0.000000    8.710300    0.000000
        0.000000    0.000000    6.118000

  Cell parameters (Angstroms/Degrees):

  a =       6.2235    alpha =  90.0000
  b =       8.7103    beta  =  90.0000
  c =       6.1180    gamma =  90.0000

  Initial cell volume =         331.647921 Angs**3

  Temperature of configuration =  0.000     K 

  Pressure of configuration =         0.000 GPa 

  Fractional coordinates of asymmetric unit :

--------------------------------------------------------------------------------
   No.  Atomic       x           y          z         Charge      Occupancy
        Label      (Frac)      (Frac)     (Frac)        (e)         (Frac)  
--------------------------------------------------------------------------------
      1 K     c    0.042000    0.250000    0.490600     1.40000    1.000000    
      2 Ca    c    0.000000    0.000000    0.000000     1.90000    1.000000    
      3 F     c    0.471500    0.250000    0.581200     0.37800    1.000000    
      4 F     c    0.291600    0.040400    0.206800     0.37800    1.000000    
      5 F     s    0.471500    0.250000    0.581200    -1.47800    1.000000    
      6 F     s    0.291600    0.040400    0.206800    -1.47800    1.000000    
--------------------------------------------------------------------------------



********************************************************************************
*  General input information                                                   *
********************************************************************************

  Species output for all configurations : 

--------------------------------------------------------------------------------
  Species    Type    Atomic    Atomic    Charge       Radii (Angs)     Library
                     Number     Mass       (e)     Cova   Ionic  VDW   Symbol
--------------------------------------------------------------------------------
    K        Core       19      39.10   1.400000   1.330  0.000  2.800          
    Ca       Core       20      40.08   1.900000   0.990  0.000  2.750          
    F        Core        9      19.00   0.378000   0.710  0.000  1.300          
    F        Shell       9       0.00  -1.478000   0.710  0.000  1.300          
--------------------------------------------------------------------------------


  Lattice summation method               =    Ewald          (3-D)
                                         =    Parry          (2-D)
                                         =    Saunders et al (1-D)
  Accuracy factor for lattice sums       =   12.000


  Time limit = Infinity

  Maximum range for interatomic potentials =    100000.000000 Angstroms

  General interatomic potentials :

--------------------------------------------------------------------------------
Atom  Types   Potential         A         B         C         D     Cutoffs(Ang)
  1     2                                                            Min    Max 
--------------------------------------------------------------------------------
K    c K    c Buckingham    0.219E+04 0.192      0.00      0.00     0.000 20.000
Ca   c F    s Buckingham    0.148E+04 0.266      0.00      0.00     0.000 20.000
F    s F    s Buckingham     912.     0.271      13.8      0.00     0.000 20.000
K    c F    s Buckingham    0.352E+04 0.267      0.00      0.00     0.000 20.000
F    c F    s Spring (c-s)   28.0      0.00      0.00      0.00     0.000  0.800
--------------------------------------------------------------------------------

********************************************************************************
*  Output for configuration   1                                                *
********************************************************************************


  Components of energy : 

--------------------------------------------------------------------------------
  Interatomic potentials     =          10.64846977 eV
  Monopole - monopole (real) =         -82.25839537 eV
  Monopole - monopole (recip)=        -102.13669559 eV
  Monopole - monopole (total)=        -184.39509096 eV
--------------------------------------------------------------------------------
  Total lattice energy       =        -173.74662119 eV
--------------------------------------------------------------------------------
  Total lattice energy       =          -16763.8930 kJ/(mole unit cells)
--------------------------------------------------------------------------------


  Number of variables =        3

  Maximum number of calculations  =          1000
  Maximum Hessian update interval =            10
  Maximum step size               =   1.000000000
  Maximum parameter tolerance     =   0.000010000
  Maximum function  tolerance     =   0.000010000
  Maximum gradient  tolerance     =   0.001000000
  Maximum gradient  component     =   0.010000000

  Symmetry constrained optimisation

  Symmetry used for second derivatives

  Cell parameters to be optimised using strains

  Newton-Raphson optimiser to be used

  BFGS hessian update to be used

  Start of bulk optimisation :

  Cycle:      0 Energy:      -173.746621  Gnorm:     16.351456  CPU:    0.009
  ** Hessian calculated **
  Cycle:      1 Energy:      -177.643732  Gnorm:      5.876680  CPU:    0.017
  Cycle:      2 Energy:      -177.955951  Gnorm:      0.544394  CPU:    0.027
  Cycle:      3 Energy:      -177.963417  Gnorm:      0.063849  CPU:    0.035
  Cycle:      4 Energy:      -177.963461  Gnorm:      0.001055  CPU:    0.044


  **** Optimisation achieved ****


  Final energy =    -177.96346097 eV
  Final Gnorm  =       0.00017522

  Components of energy : 

--------------------------------------------------------------------------------
  Interatomic potentials     =          23.51539536 eV
  Monopole - monopole (real) =         -89.87575860 eV
  Monopole - monopole (recip)=        -111.60309772 eV
  Monopole - monopole (total)=        -201.47885632 eV
--------------------------------------------------------------------------------
  Total lattice energy       =        -177.96346097 eV
--------------------------------------------------------------------------------
  Total lattice energy       =          -17170.7536 kJ/(mole unit cells)
--------------------------------------------------------------------------------

  Final asymmetric unit coordinates :

--------------------------------------------------------------------------------
   No.  Atomic        x           y           z         Radius
        Label       (Frac)      (Frac)      (Frac)       (Angs) 
--------------------------------------------------------------------------------
     1  K     c     0.042000    0.250000    0.490600    0.000000
     2  Ca    c     0.000000    0.000000    0.000000    0.000000
     3  F     c     0.471500    0.250000    0.581200    0.000000
     4  F     c     0.291600    0.040400    0.206800    0.000000
     5  F     s     0.471500    0.250000    0.581200    0.000000
     6  F     s     0.291600    0.040400    0.206800    0.000000
--------------------------------------------------------------------------------

  Final Cartesian lattice vectors (Angstroms) :

        5.717171    0.000000    0.000000
        0.000000    7.928997    0.000000
        0.000000    0.000000    5.607829


  Final cell parameters and derivatives :

--------------------------------------------------------------------------------
       a            5.717171 Angstrom     dE/de1(xx)     0.000349 eV/strain
       b            7.928997 Angstrom     dE/de2(yy)     0.000005 eV/strain
       c            5.607829 Angstrom     dE/de3(zz)    -0.000393 eV/strain
       alpha       90.000000 Degrees      dE/de4(yz)     0.000000 eV/strain
       beta        90.000000 Degrees      dE/de5(xz)     0.000000 eV/strain
       gamma       90.000000 Degrees      dE/de6(xy)     0.000000 eV/strain
--------------------------------------------------------------------------------

  Primitive cell volume =           254.210916 Angs**3

  Density of cell =      3.558239 g/cm**3

  Non-primitive cell volume =           254.210916 Angs**3


  Final internal derivatives :

--------------------------------------------------------------------------------
   No.  Atomic          a             b             c           Radius
        Label          (eV)          (eV)          (eV)        (eV/Angs)
--------------------------------------------------------------------------------
      1 K     c       0.000000      0.000000      0.000000      0.000000
      2 Ca    c       0.000000      0.000000      0.000000      0.000000
      3 F     c       0.000000      0.000000      0.000000      0.000000
      4 F     c       0.000000      0.000000      0.000000      0.000000
      5 F     s       0.000000      0.000000      0.000000      0.000000
      6 F     s       0.000000      0.000000      0.000000      0.000000
--------------------------------------------------------------------------------
  Maximum abs         0.000000      0.000000      0.000000      0.000000
--------------------------------------------------------------------------------


  Born effective charge tensors : 

-------------------------------------------------------------------------------
  Atom             x           y             z
-------------------------------------------------------------------------------
   1 K     x       1.3176      0.0000     -0.0397
           y       0.0000      1.3667      0.0000
           z      -0.0446      0.0000      1.3056
-------------------------------------------------------------------------------
   2 Ca    x       1.6161      0.0142     -0.0143
           y       0.0055      1.5795     -0.0045
           z       0.0009      0.0162      1.6158
-------------------------------------------------------------------------------
   3 F     x      -0.9417      0.0000      0.0183
           y       0.0000     -1.0254      0.0000
           z       0.0277      0.0000     -0.9167
-------------------------------------------------------------------------------
   4 F     x      -0.9960      0.0233     -0.0461
           y       0.0312     -0.9604     -0.0306
           z      -0.0443     -0.0320     -1.0023
-------------------------------------------------------------------------------




  Elastic Constant Matrix: (Units=GPa)

-------------------------------------------------------------------------------
  Indices      1         2         3         4         5         6    
-------------------------------------------------------------------------------
       1    142.2065   61.1026   62.1313    0.0000    0.0000    0.0000
       2     61.1026  151.2104   65.9584    0.0000    0.0000    0.0000
       3     62.1313   65.9584  152.9881    0.0000    0.0000    0.0000
       4      0.0000    0.0000    0.0000   49.5338    0.0000    0.0000
       5      0.0000    0.0000    0.0000    0.0000   40.6755    0.0000
       6      0.0000    0.0000    0.0000    0.0000    0.0000   56.1886
-------------------------------------------------------------------------------


  Elastic Compliance Matrix: (Units=1/GPa)

-------------------------------------------------------------------------------
  Indices      1         2         3         4         5         6    
-------------------------------------------------------------------------------
       1    0.009313 -0.002603 -0.002660  0.000000  0.000000  0.000000
       2   -0.002603  0.008873 -0.002768  0.000000  0.000000  0.000000
       3   -0.002660 -0.002768  0.008810  0.000000  0.000000  0.000000
       4    0.000000  0.000000  0.000000  0.020188  0.000000  0.000000
       5    0.000000  0.000000  0.000000  0.000000  0.024585  0.000000
       6    0.000000  0.000000  0.000000  0.000000  0.000000  0.017797
-------------------------------------------------------------------------------

  Mechanical properties :

-------------------------------------------------------------------------------
  Convention :                    Reuss         Voigt         Hill
-------------------------------------------------------------------------------
  Bulk  Modulus (GPa)     =      91.46231      91.64332      91.55282
  Shear Modulus (GPa)     =      45.75750      46.42710      46.09230
-------------------------------------------------------------------------------
  Velocity S-wave (km/s)  =       3.58603       3.61217       3.59912
  Velocity P-wave (km/s)  =       6.54603       6.56904       6.55754
-------------------------------------------------------------------------------
  Compressibility (1/GPa) =    0.01093347
-------------------------------------------------------------------------------
  Stress axis :                     x             y             z
-------------------------------------------------------------------------------
  Youngs Moduli (GPa)     =     107.38244     112.70654     113.50591
-------------------------------------------------------------------------------
  Poissons Ratio (x)      =                     0.29336       0.30190
  Poissons Ratio (y)      =       0.27950                     0.31421
  Poissons Ratio (z)      =       0.28561       0.31199
-------------------------------------------------------------------------------


  Piezoelectric Strain Matrix: (Units=C/m**2)

-------------------------------------------------------------------------------
  Indices      1         2         3         4         5         6    
-------------------------------------------------------------------------------
       x     0.00000   0.00000   0.00000   0.00000   0.00000   0.00000
       y     0.00000   0.00000   0.00000   0.00000   0.00000   0.00000
       z     0.00000   0.00000   0.00000   0.00000   0.00000   0.00000
-------------------------------------------------------------------------------


  Piezoelectric Stress Matrix: (Units=10**-11 C/N)

-------------------------------------------------------------------------------
  Indices      1         2         3         4         5         6    
-------------------------------------------------------------------------------
       x     0.00000   0.00000   0.00000   0.00000   0.00000   0.00000
       y     0.00000   0.00000   0.00000   0.00000   0.00000   0.00000
       z     0.00000   0.00000   0.00000   0.00000   0.00000   0.00000
-------------------------------------------------------------------------------


  Static dielectric constant tensor : 

-------------------------------------------------------------------------------
              x         y         z
-------------------------------------------------------------------------------
       x     4.67709   0.00000   0.00000
       y     0.00000   5.40373   0.00000
       z     0.00000   0.00000   4.42744
--------------------------------------------------------------------------------

  High frequency dielectric constant tensor : 

-------------------------------------------------------------------------------
              x         y         z
-------------------------------------------------------------------------------
       x     1.64869   0.00000   0.00000
       y     0.00000   1.65115   0.00000
       z     0.00000   0.00000   1.64610
-------------------------------------------------------------------------------

  Static refractive indices : 

-------------------------------------------------------------------------------
    1 =    2.10415      2 =    2.16266      3 =    2.32459
-------------------------------------------------------------------------------

  High frequency refractive indices : 

-------------------------------------------------------------------------------
    1 =    1.28300      2 =    1.28401      3 =    1.28497
-------------------------------------------------------------------------------


  Time to end of optimisation =       0.0758 seconds


  Peak dynamic memory used =       0.73 MB 


  Timing analysis for GULP :

--------------------------------------------------------------------------------
  Task / Subroutine                                          Time (Seconds)
--------------------------------------------------------------------------------
  Calculation of reciprocal space energy and derivatives          0.0026
  Calculation of reciprocal space energy using symmetry           0.0044
  Calculation of real space energy and derivatives                0.0199
  Calculation of real space energy using symmetry                 0.0447
  Symmetry generation of equivalent positions                     0.0004
--------------------------------------------------------------------------------
  Total CPU time                                                  0.0759
--------------------------------------------------------------------------------


  CIF file written as perov.cif                                               


  Job Finished at 09:41.48  6th April      2017                               

