********************************************************************************
*                       GENERAL UTILITY LATTICE PROGRAM                        *
*                                 Julian Gale                                  *
*                      Nanochemistry Research Institute                        *
*                           Department of Chemistry                            *
*                    Curtin University, Western Australia                      *
********************************************************************************
* Version = 4.3.2 * Last modified =  3rd March 2015                            *
********************************************************************************
*  optimise     - perform optimisation run                                     *
*  cell_only    - only optimise unit cell                                      *
*  property     - calculate properties for final geometry                      *
********************************************************************************

  Job Started  at 09:31.55  6th April      2017                               

  Number of CPUs =     1


  Total number of configurations input =   1

********************************************************************************
*  Input for Configuration =   1                                               *
********************************************************************************

  Formula = Tb2Ba2O6                                                    

  Number of irreducible atoms/shells =       4


  Total number atoms/shells =      16

  Dimensionality = 3               :  Bulk   


  Symmetry :

  Crystal family                   :  Hexagonal   
  Crystal class  (Groth - 1921)    :  Ditrigonal Scalenohedral             

  Space group (centrosymmetric)    :  R -3 C          

  Patterson group                  :  R -3 m   

  Cartesian lattice vectors (Angstroms) :

        3.039900    1.755087    4.922700
       -3.039900    1.755087    4.922700
        0.000000   -3.510174    4.922700

  Primitive cell parameters :            Full cell parameters :

  a =   6.0460    alpha =  60.3700       a =   6.0798    alpha =  90.0000
  b =   6.0460    beta  =  60.3700       b =   6.0798    beta  =  90.0000
  c =   6.0460    gamma =  60.3700       c =  14.7681    gamma = 120.0000

  Initial volumes (Angstroms**3):

  Primitive cell =         157.584170    Full cell =         472.752509

  Temperature of configuration =  0.000     K 

  Pressure of configuration =         0.000 GPa 

  Fractional coordinates of asymmetric unit :

--------------------------------------------------------------------------------
   No.  Atomic       x           y          z         Charge      Occupancy
        Label      (Frac)      (Frac)     (Frac)        (e)         (Frac)  
--------------------------------------------------------------------------------
      1 Tb    c    0.000000    0.000000    0.000000     1.30000    1.000000    
      2 Ba    c    0.000000    0.000000    0.250000     2.30000    1.000000    
      3 O     c    0.462400    0.000000    0.250000     0.37800    1.000000    
      4 O     s    0.462400    0.000000    0.250000    -1.57800    1.000000    
--------------------------------------------------------------------------------


  Constraints : 

--------------------------------------------------------------------------------
  Constraint no.      Unconstrained     Constrained    Coefficient    Offset
                         Variable         Variable
--------------------------------------------------------------------------------
           1              Strain 1        Strain 2       1.00000      0.0000
--------------------------------------------------------------------------------


********************************************************************************
*  General input information                                                   *
********************************************************************************

  Species output for all configurations : 

--------------------------------------------------------------------------------
  Species    Type    Atomic    Atomic    Charge       Radii (Angs)     Library
                     Number     Mass       (e)     Cova   Ionic  VDW   Symbol
--------------------------------------------------------------------------------
    Tb       Core       65     158.93   1.300000   1.760  0.000  2.630          
    Ba       Core       56     137.33   2.300000   1.340  0.000  2.000          
    O        Core        8      16.00   0.378000   0.730  0.000  1.360          
    O        Shell       8       0.00  -1.578000   0.730  0.000  1.360          
--------------------------------------------------------------------------------


  Lattice summation method               =    Ewald          (3-D)
                                         =    Parry          (2-D)
                                         =    Saunders et al (1-D)
  Accuracy factor for lattice sums       =   12.000


  Time limit = Infinity

  Maximum range for interatomic potentials =    100000.000000 Angstroms

  General interatomic potentials :

--------------------------------------------------------------------------------
Atom  Types   Potential         A         B         C         D     Cutoffs(Ang)
  1     2                                                            Min    Max 
--------------------------------------------------------------------------------
Ba   c Ba   c Buckingham    0.219E+04 0.192      0.00      0.00     0.000 40.000
Tb   c O    s Buckingham    0.148E+04 0.266      0.00      0.00     0.000 40.000
O    s O    s Buckingham     912.     0.271      13.8      0.00     0.000 40.000
Ba   c O    s Buckingham    0.352E+04 0.267      0.00      0.00     0.000 40.000
O    c O    s Spring (c-s)   31.9      0.00      0.00      0.00     0.000  0.800
--------------------------------------------------------------------------------

********************************************************************************
*  Output for configuration   1                                                *
********************************************************************************


  Components of energy : 

--------------------------------------------------------------------------------
  Interatomic potentials     =           6.37876336 eV
  Monopole - monopole (real) =         -31.34912504 eV
  Monopole - monopole (recip)=         -74.37038974 eV
  Monopole - monopole (total)=        -105.71951478 eV
--------------------------------------------------------------------------------
  Total lattice energy : 
    Primitive unit cell      =         -99.34075142 eV
    Non-primitive unit cell  =        -298.02225426 eV
--------------------------------------------------------------------------------
  Total lattice energy (in kJmol-1): 
    Primitive unit cell      =           -9584.8639 kJ/(mole unit cells)
    Non-primitive unit cell  =          -28754.5918 kJ/(mole unit cells)
--------------------------------------------------------------------------------


  Number of variables =        2

  Maximum number of calculations  =          1000
  Maximum Hessian update interval =            10
  Maximum step size               =   1.000000000
  Maximum parameter tolerance     =   0.000010000
  Maximum function  tolerance     =   0.000010000
  Maximum gradient  tolerance     =   0.001000000
  Maximum gradient  component     =   0.010000000

  Symmetry constrained optimisation

  Symmetry used for second derivatives

  Cell parameters to be optimised using strains

  Newton-Raphson optimiser to be used

  BFGS hessian update to be used

  Start of bulk optimisation :

  Cycle:      0 Energy:       -99.340751  Gnorm:     18.320428  CPU:    0.022
  ** Hessian calculated **
  Cycle:      1 Energy:      -101.710424  Gnorm:      5.322910  CPU:    0.054
  Cycle:      2 Energy:      -101.860077  Gnorm:      0.028230  CPU:    0.093
  Cycle:      3 Energy:      -101.860087  Gnorm:      0.003733  CPU:    0.126


  **** Optimisation achieved ****


  Final energy =    -101.86008740 eV
  Final Gnorm  =       0.00008561

  Components of energy : 

--------------------------------------------------------------------------------
  Interatomic potentials     =          14.09131109 eV
  Monopole - monopole (real) =         -34.38980155 eV
  Monopole - monopole (recip)=         -81.56159693 eV
  Monopole - monopole (total)=        -115.95139848 eV
--------------------------------------------------------------------------------
  Total lattice energy : 
    Primitive unit cell      =        -101.86008740 eV
    Non-primitive unit cell  =        -305.58026219 eV
--------------------------------------------------------------------------------
  Total lattice energy (in kJmol-1): 
    Primitive unit cell      =           -9827.9414 kJ/(mole unit cells)
    Non-primitive unit cell  =          -29483.8241 kJ/(mole unit cells)
--------------------------------------------------------------------------------

  Final asymmetric unit coordinates :

--------------------------------------------------------------------------------
   No.  Atomic        x           y           z         Radius
        Label       (Frac)      (Frac)      (Frac)       (Angs) 
--------------------------------------------------------------------------------
     1  Tb    c     0.000000    0.000000    0.000000    0.000000
     2  Ba    c     0.000000    0.000000    0.250000    0.000000
     3  O     c     0.462400    0.000000    0.250000    0.000000
     4  O     s     0.462400    0.000000    0.250000    0.000000
--------------------------------------------------------------------------------

  Final Cartesian lattice vectors (Angstroms) :

        2.766767    1.597394    4.505299
       -2.766767    1.597394    4.505299
        0.000000   -3.194787    4.505299


  Final cell parameters and derivatives :

--------------------------------------------------------------------------------
       a            5.523077 Angstrom     dE/de1(xx)    -0.000143 eV/strain
       b            5.523077 Angstrom     dE/de2(yy)     0.000000 eV/strain
       c            5.523077 Angstrom     dE/de3(zz)    -0.000094 eV/strain
       alpha       60.125297 Degrees      dE/de4(yz)     0.000000 eV/strain
       beta        60.125297 Degrees      dE/de5(xz)     0.000000 eV/strain
       gamma       60.125297 Degrees      dE/de6(xy)     0.000000 eV/strain
--------------------------------------------------------------------------------

  Primitive cell volume =           119.470135 Angs**3

  Density of cell =      9.570028 g/cm**3

  Non-primitive lattice parameters :

  a    =     5.533534  b   =     5.533534  c    =    13.515896
  alpha=    90.000000  beta=    90.000000  gamma=   120.000000

  Non-primitive cell volume =           358.410404 Angs**3


  Final internal derivatives :

--------------------------------------------------------------------------------
   No.  Atomic          a             b             c           Radius
        Label          (eV)          (eV)          (eV)        (eV/Angs)
--------------------------------------------------------------------------------
      1 Tb    c       0.000000      0.000000      0.000000      0.000000
      2 Ba    c       0.000000      0.000000      0.000000      0.000000
      3 O     c       0.000000      0.000000      0.000000      0.000000
      4 O     s       0.000000      0.000000      0.000000      0.000000
--------------------------------------------------------------------------------
  Maximum abs         0.000000      0.000000      0.000000      0.000000
--------------------------------------------------------------------------------


  Born effective charge tensors : 

-------------------------------------------------------------------------------
  Atom             x           y             z
-------------------------------------------------------------------------------
   1 Tb    x       0.7265     -0.0080      0.0000
           y       0.0080      0.7265      0.0000
           z       0.0000      0.0000      0.7340
-------------------------------------------------------------------------------
   2 Ba    x       2.6042      0.0000      0.0000
           y       0.0000      2.6042      0.0000
           z       0.0000      0.0000      2.6485
-------------------------------------------------------------------------------
   3 O     x      -1.2646      0.0000      0.0000
           y       0.0000     -0.9559      0.2413
           z       0.0000      0.2424     -1.1275
-------------------------------------------------------------------------------




  Elastic Constant Matrix: (Units=GPa)

-------------------------------------------------------------------------------
  Indices      1         2         3         4         5         6    
-------------------------------------------------------------------------------
       1    201.2782   47.4319   86.9332  -51.1836    0.0000    0.0000
       2     47.4319  201.2782   86.9332   51.1836    0.0000    0.0000
       3     86.9332   86.9332  142.5211    0.0000    0.0000    0.0000
       4    -51.1836   51.1836    0.0000   93.7542    0.0000    0.0000
       5      0.0000    0.0000    0.0000    0.0000   93.7542  -51.1836
       6      0.0000    0.0000    0.0000    0.0000  -51.1836   76.9232
-------------------------------------------------------------------------------


  Elastic Compliance Matrix: (Units=1/GPa)

-------------------------------------------------------------------------------
  Indices      1         2         3         4         5         6    
-------------------------------------------------------------------------------
       1    0.008609 -0.001599 -0.004276  0.005573  0.000000  0.000000
       2   -0.001599  0.008609 -0.004276 -0.005573  0.000000  0.000000
       3   -0.004276 -0.004276  0.012233  0.000000  0.000000  0.000000
       4    0.005573 -0.005573  0.000000  0.016751  0.000000  0.000000
       5    0.000000  0.000000  0.000000  0.000000  0.016751  0.011146
       6    0.000000  0.000000  0.000000  0.000000  0.011146  0.020416
-------------------------------------------------------------------------------

  Mechanical properties :

-------------------------------------------------------------------------------
  Convention :                    Reuss         Voigt         Hill
-------------------------------------------------------------------------------
  Bulk  Modulus (GPa)     =     109.29864     109.74159     109.52011
  Shear Modulus (GPa)     =      46.85134      74.47160      60.66147
-------------------------------------------------------------------------------
  Velocity S-wave (km/s)  =       2.21261       2.78958       2.51768
  Velocity P-wave (km/s)  =       4.23656       4.67364       4.46046
-------------------------------------------------------------------------------
  Compressibility (1/GPa) =    0.00914924
-------------------------------------------------------------------------------
  Stress axis :                     x             y             z
-------------------------------------------------------------------------------
  Youngs Moduli (GPa)     =     116.15749     116.15749      81.74845
-------------------------------------------------------------------------------
  Poissons Ratio (x)      =                     0.18576       0.34954
  Poissons Ratio (y)      =       0.18576                     0.34954
  Poissons Ratio (z)      =       0.49666       0.49666
-------------------------------------------------------------------------------


  Piezoelectric Strain Matrix: (Units=C/m**2)

-------------------------------------------------------------------------------
  Indices      1         2         3         4         5         6    
-------------------------------------------------------------------------------
       x     0.00000   0.00000   0.00000   0.00000   0.00000   0.00000
       y     0.00000   0.00000   0.00000   0.00000   0.00000   0.00000
       z     0.00000   0.00000   0.00000   0.00000   0.00000   0.00000
-------------------------------------------------------------------------------


  Piezoelectric Stress Matrix: (Units=10**-11 C/N)

-------------------------------------------------------------------------------
  Indices      1         2         3         4         5         6    
-------------------------------------------------------------------------------
       x     0.00000   0.00000   0.00000   0.00000   0.00000   0.00000
       y     0.00000   0.00000   0.00000   0.00000   0.00000   0.00000
       z     0.00000   0.00000   0.00000   0.00000   0.00000   0.00000
-------------------------------------------------------------------------------


  Static dielectric constant tensor : 

-------------------------------------------------------------------------------
              x         y         z
-------------------------------------------------------------------------------
       x   -11.23768   0.00000   0.00000
       y     0.00000 -11.23768   0.00000
       z     0.00000   0.00000  -5.80593
--------------------------------------------------------------------------------

  High frequency dielectric constant tensor : 

-------------------------------------------------------------------------------
              x         y         z
-------------------------------------------------------------------------------
       x     1.70610   0.00000   0.00000
       y     0.00000   1.70610   0.00000
       z     0.00000   0.00000   1.71508
-------------------------------------------------------------------------------

  Static refractive indices : 

-------------------------------------------------------------------------------
    1 =   -3.35227      2 =   -3.35226      3 =   -2.40955
-------------------------------------------------------------------------------

  High frequency refractive indices : 

-------------------------------------------------------------------------------
    1 =    1.30618      2 =    1.30618      3 =    1.30961
-------------------------------------------------------------------------------


  Time to end of optimisation =       0.2176 seconds


  Peak dynamic memory used =       1.04 MB 


  Timing analysis for GULP :

--------------------------------------------------------------------------------
  Task / Subroutine                                          Time (Seconds)
--------------------------------------------------------------------------------
  Calculation of reciprocal space energy and derivatives          0.0010
  Calculation of reciprocal space energy using symmetry           0.0016
  Calculation of real space energy and derivatives                0.0592
  Calculation of real space energy using symmetry                 0.1522
  Symmetry generation of equivalent positions                     0.0003
--------------------------------------------------------------------------------
  Total CPU time                                                  0.2177
--------------------------------------------------------------------------------


  CIF file written as perov.cif                                               


  Job Finished at 09:31.55  6th April      2017                               

