********************************************************************************
*                       GENERAL UTILITY LATTICE PROGRAM                        *
*                                 Julian Gale                                  *
*                      Nanochemistry Research Institute                        *
*                           Department of Chemistry                            *
*                    Curtin University, Western Australia                      *
********************************************************************************
* Version = 4.3.2 * Last modified =  3rd March 2015                            *
********************************************************************************
*  optimise     - perform optimisation run                                     *
*  cell_only    - only optimise unit cell                                      *
*  property     - calculate properties for final geometry                      *
********************************************************************************

  Job Started  at 09:31.30  6th April      2017                               

  Number of CPUs =     1


  Total number of configurations input =   1

********************************************************************************
*  Input for Configuration =   1                                               *
********************************************************************************

  Formula = Tb2Ba2O6                                                    

  Number of irreducible atoms/shells =       4


  Total number atoms/shells =      16

  Dimensionality = 3               :  Bulk   


  Symmetry :

  Crystal family                   :  Hexagonal   
  Crystal class  (Groth - 1921)    :  Ditrigonal Scalenohedral             

  Space group (centrosymmetric)    :  R -3 C          

  Patterson group                  :  R -3 m   

  Cartesian lattice vectors (Angstroms) :

        3.039900    1.755087    4.922700
       -3.039900    1.755087    4.922700
        0.000000   -3.510174    4.922700

  Primitive cell parameters :            Full cell parameters :

  a =   6.0460    alpha =  60.3700       a =   6.0798    alpha =  90.0000
  b =   6.0460    beta  =  60.3700       b =   6.0798    beta  =  90.0000
  c =   6.0460    gamma =  60.3700       c =  14.7681    gamma = 120.0000

  Initial volumes (Angstroms**3):

  Primitive cell =         157.584170    Full cell =         472.752509

  Temperature of configuration =  0.000     K 

  Pressure of configuration =         0.000 GPa 

  Fractional coordinates of asymmetric unit :

--------------------------------------------------------------------------------
   No.  Atomic       x           y          z         Charge      Occupancy
        Label      (Frac)      (Frac)     (Frac)        (e)         (Frac)  
--------------------------------------------------------------------------------
      1 Tb    c    0.000000    0.000000    0.000000     0.50000    1.000000    
      2 Ba    c    0.000000    0.000000    0.250000     2.20000    1.000000    
      3 O     c    0.462400    0.000000    0.250000     0.37800    1.000000    
      4 O     s    0.462400    0.000000    0.250000    -1.27800    1.000000    
--------------------------------------------------------------------------------


  Constraints : 

--------------------------------------------------------------------------------
  Constraint no.      Unconstrained     Constrained    Coefficient    Offset
                         Variable         Variable
--------------------------------------------------------------------------------
           1              Strain 1        Strain 2       1.00000      0.0000
--------------------------------------------------------------------------------


********************************************************************************
*  General input information                                                   *
********************************************************************************

  Species output for all configurations : 

--------------------------------------------------------------------------------
  Species    Type    Atomic    Atomic    Charge       Radii (Angs)     Library
                     Number     Mass       (e)     Cova   Ionic  VDW   Symbol
--------------------------------------------------------------------------------
    Tb       Core       65     158.93   0.500000   1.760  0.000  2.630          
    Ba       Core       56     137.33   2.200000   1.340  0.000  2.000          
    O        Core        8      16.00   0.378000   0.730  0.000  1.360          
    O        Shell       8       0.00  -1.278000   0.730  0.000  1.360          
--------------------------------------------------------------------------------


  Lattice summation method               =    Ewald          (3-D)
                                         =    Parry          (2-D)
                                         =    Saunders et al (1-D)
  Accuracy factor for lattice sums       =   12.000


  Time limit = Infinity

  Maximum range for interatomic potentials =    100000.000000 Angstroms

  General interatomic potentials :

--------------------------------------------------------------------------------
Atom  Types   Potential         A         B         C         D     Cutoffs(Ang)
  1     2                                                            Min    Max 
--------------------------------------------------------------------------------
Ba   c Ba   c Buckingham    0.219E+04 0.192      0.00      0.00     0.000 40.000
Tb   c O    s Buckingham    0.148E+04 0.266      0.00      0.00     0.000 40.000
O    s O    s Buckingham     912.     0.271      13.8      0.00     0.000 40.000
Ba   c O    s Buckingham    0.352E+04 0.267      0.00      0.00     0.000 40.000
O    c O    s Spring (c-s)   20.9      0.00      0.00      0.00     0.000  0.800
--------------------------------------------------------------------------------

********************************************************************************
*  Output for configuration   1                                                *
********************************************************************************


  Components of energy : 

--------------------------------------------------------------------------------
  Interatomic potentials     =           6.37876336 eV
  Monopole - monopole (real) =         -14.90774331 eV
  Monopole - monopole (recip)=         -48.55892460 eV
  Monopole - monopole (total)=         -63.46666792 eV
--------------------------------------------------------------------------------
  Total lattice energy : 
    Primitive unit cell      =         -57.08790455 eV
    Non-primitive unit cell  =        -171.26371365 eV
--------------------------------------------------------------------------------
  Total lattice energy (in kJmol-1): 
    Primitive unit cell      =           -5508.1101 kJ/(mole unit cells)
    Non-primitive unit cell  =          -16524.3304 kJ/(mole unit cells)
--------------------------------------------------------------------------------


  Number of variables =        2

  Maximum number of calculations  =          1000
  Maximum Hessian update interval =            10
  Maximum step size               =   1.000000000
  Maximum parameter tolerance     =   0.000010000
  Maximum function  tolerance     =   0.000010000
  Maximum gradient  tolerance     =   0.001000000
  Maximum gradient  component     =   0.010000000

  Symmetry constrained optimisation

  Symmetry used for second derivatives

  Cell parameters to be optimised using strains

  Newton-Raphson optimiser to be used

  BFGS hessian update to be used

  Start of bulk optimisation :

  Cycle:      0 Energy:       -57.087905  Gnorm:      2.375574  CPU:    0.022
  ** Hessian calculated **
  Cycle:      1 Energy:       -57.136872  Gnorm:      0.021472  CPU:    0.055
  Cycle:      2 Energy:       -57.136875  Gnorm:      0.001589  CPU:    0.081


  **** Optimisation achieved ****


  Final energy =     -57.13687515 eV
  Final Gnorm  =       0.00000398

  Components of energy : 

--------------------------------------------------------------------------------
  Interatomic potentials     =           7.30502804 eV
  Monopole - monopole (real) =         -15.14522569 eV
  Monopole - monopole (recip)=         -49.29667750 eV
  Monopole - monopole (total)=         -64.44190319 eV
--------------------------------------------------------------------------------
  Total lattice energy : 
    Primitive unit cell      =         -57.13687515 eV
    Non-primitive unit cell  =        -171.41062544 eV
--------------------------------------------------------------------------------
  Total lattice energy (in kJmol-1): 
    Primitive unit cell      =           -5512.8350 kJ/(mole unit cells)
    Non-primitive unit cell  =          -16538.5051 kJ/(mole unit cells)
--------------------------------------------------------------------------------

  Final asymmetric unit coordinates :

--------------------------------------------------------------------------------
   No.  Atomic        x           y           z         Radius
        Label       (Frac)      (Frac)      (Frac)       (Angs) 
--------------------------------------------------------------------------------
     1  Tb    c     0.000000    0.000000    0.000000    0.000000
     2  Ba    c     0.000000    0.000000    0.250000    0.000000
     3  O     c     0.462400    0.000000    0.250000    0.000000
     4  O     s     0.462400    0.000000    0.250000    0.000000
--------------------------------------------------------------------------------

  Final Cartesian lattice vectors (Angstroms) :

        2.981677    1.721472    4.890571
       -2.981677    1.721472    4.890571
        0.000000   -3.442944    4.890571


  Final cell parameters and derivatives :

--------------------------------------------------------------------------------
       a            5.980932 Angstrom     dE/de1(xx)    -0.000003 eV/strain
       b            5.980932 Angstrom     dE/de2(yy)     0.000000 eV/strain
       c            5.980932 Angstrom     dE/de3(zz)    -0.000007 eV/strain
       alpha       59.805658 Degrees      dE/de4(yz)     0.000000 eV/strain
       beta        59.805658 Degrees      dE/de5(xz)     0.000000 eV/strain
       gamma       59.805658 Degrees      dE/de6(xy)     0.000000 eV/strain
--------------------------------------------------------------------------------

  Primitive cell volume =           150.616097 Angs**3

  Density of cell =      7.591038 g/cm**3

  Non-primitive lattice parameters :

  a    =     5.963354  b   =     5.963354  c    =    14.671712
  alpha=    90.000000  beta=    90.000000  gamma=   120.000000

  Non-primitive cell volume =           451.848292 Angs**3


  Final internal derivatives :

--------------------------------------------------------------------------------
   No.  Atomic          a             b             c           Radius
        Label          (eV)          (eV)          (eV)        (eV/Angs)
--------------------------------------------------------------------------------
      1 Tb    c       0.000000      0.000000      0.000000      0.000000
      2 Ba    c       0.000000      0.000000      0.000000      0.000000
      3 O     c       0.000000      0.000000      0.000000      0.000000
      4 O     s       0.000000      0.000000      0.000000      0.000000
--------------------------------------------------------------------------------
  Maximum abs         0.000000      0.000000      0.000000      0.000000
--------------------------------------------------------------------------------


  Born effective charge tensors : 

-------------------------------------------------------------------------------
  Atom             x           y             z
-------------------------------------------------------------------------------
   1 Tb    x       0.0995     -0.0350      0.0000
           y       0.0350      0.0995      0.0000
           z       0.0000      0.0000      0.1088
-------------------------------------------------------------------------------
   2 Ba    x       2.5512      0.0000      0.0000
           y       0.0000      2.5512      0.0000
           z       0.0000      0.0000      2.5709
-------------------------------------------------------------------------------
   3 O     x      -1.0960      0.0000      0.0000
           y       0.0000     -0.6712      0.3167
           z       0.0000      0.3169     -0.8932
-------------------------------------------------------------------------------




  Elastic Constant Matrix: (Units=GPa)

-------------------------------------------------------------------------------
  Indices      1         2         3         4         5         6    
-------------------------------------------------------------------------------
       1     79.8038   24.9353   56.4958  -46.4041    0.0000    0.0000
       2     24.9353   79.8038   56.4958   46.4041    0.0000    0.0000
       3     56.4958   56.4958   38.6359    0.0000    0.0000    0.0000
       4    -46.4041   46.4041    0.0000   57.7450    0.0000    0.0000
       5      0.0000    0.0000    0.0000    0.0000   57.7450  -46.4041
       6      0.0000    0.0000    0.0000    0.0000  -46.4041   27.4343
-------------------------------------------------------------------------------


  Elastic Compliance Matrix: (Units=1/GPa)

-------------------------------------------------------------------------------
  Indices      1         2         3         4         5         6    
-------------------------------------------------------------------------------
       1   -0.033631  0.017098  0.024176 -0.040766  0.000000  0.000000
       2    0.017098 -0.033631  0.024176  0.040766  0.000000  0.000000
       3    0.024176  0.024176 -0.044820  0.000000  0.000000  0.000000
       4   -0.040766  0.040766  0.000000 -0.048202  0.000000  0.000000
       5    0.000000  0.000000  0.000000  0.000000 -0.048202 -0.081532
       6    0.000000  0.000000  0.000000  0.000000 -0.081532 -0.101458
-------------------------------------------------------------------------------

  Mechanical properties :

-------------------------------------------------------------------------------
  Convention :                    Reuss         Voigt         Hill
-------------------------------------------------------------------------------
  Bulk  Modulus (GPa)     =      53.14395      52.67749      52.91072
  Shear Modulus (GPa)     =     -11.50554      32.60599      10.55022
-------------------------------------------------------------------------------
  Velocity S-wave (km/s)  =      -1.23113       2.07252       1.17891
  Velocity P-wave (km/s)  =       2.23159       3.55901       2.97040
-------------------------------------------------------------------------------
  Compressibility (1/GPa) =    0.01881682
-------------------------------------------------------------------------------
  Stress axis :                     x             y             z
-------------------------------------------------------------------------------
  Youngs Moduli (GPa)     =     -29.73427     -29.73427     -22.31126
-------------------------------------------------------------------------------
  Poissons Ratio (x)      =                     0.50840       0.53940
  Poissons Ratio (y)      =       0.50840                     0.53940
  Poissons Ratio (z)      =       0.71885       0.71885
-------------------------------------------------------------------------------


  Piezoelectric Strain Matrix: (Units=C/m**2)

-------------------------------------------------------------------------------
  Indices      1         2         3         4         5         6    
-------------------------------------------------------------------------------
       x     0.00000   0.00000   0.00000   0.00000   0.00000   0.00000
       y     0.00000   0.00000   0.00000   0.00000   0.00000   0.00000
       z     0.00000   0.00000   0.00000   0.00000   0.00000   0.00000
-------------------------------------------------------------------------------


  Piezoelectric Stress Matrix: (Units=10**-11 C/N)

-------------------------------------------------------------------------------
  Indices      1         2         3         4         5         6    
-------------------------------------------------------------------------------
       x     0.00000   0.00000   0.00000   0.00000   0.00000   0.00000
       y     0.00000   0.00000   0.00000   0.00000   0.00000   0.00000
       z     0.00000   0.00000   0.00000   0.00000   0.00000   0.00000
-------------------------------------------------------------------------------


  Static dielectric constant tensor : 

-------------------------------------------------------------------------------
              x         y         z
-------------------------------------------------------------------------------
       x    -2.24536   0.00000   0.00000
       y     0.00000  -2.24536   0.00000
       z     0.00000   0.00000  -1.69511
--------------------------------------------------------------------------------

  High frequency dielectric constant tensor : 

-------------------------------------------------------------------------------
              x         y         z
-------------------------------------------------------------------------------
       x     1.58437   0.00000   0.00000
       y     0.00000   1.58437   0.00000
       z     0.00000   0.00000   1.58916
-------------------------------------------------------------------------------

  Static refractive indices : 

-------------------------------------------------------------------------------
    1 =   -1.49845      2 =   -1.49845      3 =   -1.30196
-------------------------------------------------------------------------------

  High frequency refractive indices : 

-------------------------------------------------------------------------------
    1 =    1.25872      2 =    1.25872      3 =    1.26062
-------------------------------------------------------------------------------


  Time to end of optimisation =       0.1546 seconds


  Peak dynamic memory used =       0.85 MB 


  Timing analysis for GULP :

--------------------------------------------------------------------------------
  Task / Subroutine                                          Time (Seconds)
--------------------------------------------------------------------------------
  Calculation of reciprocal space energy and derivatives          0.0009
  Calculation of reciprocal space energy using symmetry           0.0013
  Calculation of real space energy and derivatives                0.0454
  Calculation of real space energy using symmetry                 0.1036
  Symmetry generation of equivalent positions                     0.0002
--------------------------------------------------------------------------------
  Total CPU time                                                  0.1547
--------------------------------------------------------------------------------


  CIF file written as perov.cif                                               


  Job Finished at 09:31.30  6th April      2017                               

