********************************************************************************
*                       GENERAL UTILITY LATTICE PROGRAM                        *
*                                 Julian Gale                                  *
*                      Nanochemistry Research Institute                        *
*                           Department of Chemistry                            *
*                    Curtin University, Western Australia                      *
********************************************************************************
* Version = 4.3.2 * Last modified =  3rd March 2015                            *
********************************************************************************
*  optimise     - perform optimisation run                                     *
*  cell_only    - only optimise unit cell                                      *
*  property     - calculate properties for final geometry                      *
********************************************************************************

  Job Started  at 09:31.35  6th April      2017                               

  Number of CPUs =     1


  Total number of configurations input =   1

********************************************************************************
*  Input for Configuration =   1                                               *
********************************************************************************

  Formula = Tb2Ba2O6                                                    

  Number of irreducible atoms/shells =       4


  Total number atoms/shells =      16

  Dimensionality = 3               :  Bulk   


  Symmetry :

  Crystal family                   :  Hexagonal   
  Crystal class  (Groth - 1921)    :  Ditrigonal Scalenohedral             

  Space group (centrosymmetric)    :  R -3 C          

  Patterson group                  :  R -3 m   

  Cartesian lattice vectors (Angstroms) :

        3.039900    1.755087    4.922700
       -3.039900    1.755087    4.922700
        0.000000   -3.510174    4.922700

  Primitive cell parameters :            Full cell parameters :

  a =   6.0460    alpha =  60.3700       a =   6.0798    alpha =  90.0000
  b =   6.0460    beta  =  60.3700       b =   6.0798    beta  =  90.0000
  c =   6.0460    gamma =  60.3700       c =  14.7681    gamma = 120.0000

  Initial volumes (Angstroms**3):

  Primitive cell =         157.584170    Full cell =         472.752509

  Temperature of configuration =  0.000     K 

  Pressure of configuration =         0.000 GPa 

  Fractional coordinates of asymmetric unit :

--------------------------------------------------------------------------------
   No.  Atomic       x           y          z         Charge      Occupancy
        Label      (Frac)      (Frac)     (Frac)        (e)         (Frac)  
--------------------------------------------------------------------------------
      1 Tb    c    0.000000    0.000000    0.000000     0.60000    1.000000    
      2 Ba    c    0.000000    0.000000    0.250000     2.10000    1.000000    
      3 O     c    0.462400    0.000000    0.250000     0.37800    1.000000    
      4 O     s    0.462400    0.000000    0.250000    -1.27800    1.000000    
--------------------------------------------------------------------------------


  Constraints : 

--------------------------------------------------------------------------------
  Constraint no.      Unconstrained     Constrained    Coefficient    Offset
                         Variable         Variable
--------------------------------------------------------------------------------
           1              Strain 1        Strain 2       1.00000      0.0000
--------------------------------------------------------------------------------


********************************************************************************
*  General input information                                                   *
********************************************************************************

  Species output for all configurations : 

--------------------------------------------------------------------------------
  Species    Type    Atomic    Atomic    Charge       Radii (Angs)     Library
                     Number     Mass       (e)     Cova   Ionic  VDW   Symbol
--------------------------------------------------------------------------------
    Tb       Core       65     158.93   0.600000   1.760  0.000  2.630          
    Ba       Core       56     137.33   2.100000   1.340  0.000  2.000          
    O        Core        8      16.00   0.378000   0.730  0.000  1.360          
    O        Shell       8       0.00  -1.278000   0.730  0.000  1.360          
--------------------------------------------------------------------------------


  Lattice summation method               =    Ewald          (3-D)
                                         =    Parry          (2-D)
                                         =    Saunders et al (1-D)
  Accuracy factor for lattice sums       =   12.000


  Time limit = Infinity

  Maximum range for interatomic potentials =    100000.000000 Angstroms

  General interatomic potentials :

--------------------------------------------------------------------------------
Atom  Types   Potential         A         B         C         D     Cutoffs(Ang)
  1     2                                                            Min    Max 
--------------------------------------------------------------------------------
Ba   c Ba   c Buckingham    0.219E+04 0.192      0.00      0.00     0.000 40.000
Tb   c O    s Buckingham    0.148E+04 0.266      0.00      0.00     0.000 40.000
O    s O    s Buckingham     912.     0.271      13.8      0.00     0.000 40.000
Ba   c O    s Buckingham    0.352E+04 0.267      0.00      0.00     0.000 40.000
O    c O    s Spring (c-s)   20.9      0.00      0.00      0.00     0.000  0.800
--------------------------------------------------------------------------------

********************************************************************************
*  Output for configuration   1                                                *
********************************************************************************


  Components of energy : 

--------------------------------------------------------------------------------
  Interatomic potentials     =           6.37876336 eV
  Monopole - monopole (real) =         -15.43113086 eV
  Monopole - monopole (recip)=         -46.68079293 eV
  Monopole - monopole (total)=         -62.11192378 eV
--------------------------------------------------------------------------------
  Total lattice energy : 
    Primitive unit cell      =         -55.73316042 eV
    Non-primitive unit cell  =        -167.19948125 eV
--------------------------------------------------------------------------------
  Total lattice energy (in kJmol-1): 
    Primitive unit cell      =           -5377.3980 kJ/(mole unit cells)
    Non-primitive unit cell  =          -16132.1941 kJ/(mole unit cells)
--------------------------------------------------------------------------------


  Number of variables =        2

  Maximum number of calculations  =          1000
  Maximum Hessian update interval =            10
  Maximum step size               =   1.000000000
  Maximum parameter tolerance     =   0.000010000
  Maximum function  tolerance     =   0.000010000
  Maximum gradient  tolerance     =   0.001000000
  Maximum gradient  component     =   0.010000000

  Symmetry constrained optimisation

  Symmetry used for second derivatives

  Cell parameters to be optimised using strains

  Newton-Raphson optimiser to be used

  BFGS hessian update to be used

  Start of bulk optimisation :

  Cycle:      0 Energy:       -55.733160  Gnorm:      1.876566  CPU:    0.022
  ** Hessian calculated **
  Cycle:      1 Energy:       -55.763567  Gnorm:      0.018821  CPU:    0.054
  ** Hessian calculated **
  Cycle:      2 Energy:       -55.763572  Gnorm:      0.009963  CPU:    0.094
  Cycle:      3 Energy:       -55.763577  Gnorm:      0.012844  CPU:    0.121
  ** Hessian calculated **
  Cycle:      4 Energy:       -55.763582  Gnorm:      0.008934  CPU:    0.164
  Cycle:      5 Energy:       -55.763587  Gnorm:      0.011236  CPU:    0.190
  ** Hessian calculated **
  Cycle:      6 Energy:       -55.763593  Gnorm:      0.027723  CPU:    0.230
  Cycle:      7 Energy:       -55.763606  Gnorm:      0.031491  CPU:    0.257
  ** Hessian calculated **
  Cycle:      8 Energy:       -55.763617  Gnorm:      0.016783  CPU:    0.296
  Cycle:      9 Energy:       -55.763627  Gnorm:      0.018438  CPU:    0.323
  ** Hessian calculated **
  Cycle:     10 Energy:       -55.763643  Gnorm:      0.042840  CPU:    0.363
  Cycle:     11 Energy:       -55.763982  Gnorm:      0.085052  CPU:    0.419
  ** Hessian calculated **
  Cycle:     12 Energy:       -55.764102  Gnorm:      0.069250  CPU:    0.465
  Cycle:     13 Energy:       -55.765121  Gnorm:      0.133291  CPU:    0.521
  ** Hessian calculated **
  Cycle:     14 Energy:       -55.765635  Gnorm:      0.186710  CPU:    0.567
  Cycle:     15 Energy:       -55.770874  Gnorm:      0.324398  CPU:    0.624
  ** Hessian calculated **
  Cycle:     16 Energy:       -55.775639  Gnorm:      0.596239  CPU:    0.678
  Cycle:     17 Energy:       -55.792861  Gnorm:      1.441346  CPU:    0.731
  ** Hessian calculated **
  Cycle:     18 Energy:       -55.824914  Gnorm:      0.917004  CPU:    0.785
  Cycle:     19 Energy:       -55.946395  Gnorm:      1.103142  CPU:    0.838
  ** Hessian calculated **
  Cycle:     20 Energy:       -56.114241  Gnorm:      0.794558  CPU:    0.906
  Cycle:     21 Energy:       -56.184622  Gnorm:      1.073506  CPU:    0.941
  Cycle:     22 Energy:       -56.191933  Gnorm:      0.324620  CPU:    0.977
  Cycle:     23 Energy:       -56.193079  Gnorm:      0.071320  CPU:    1.013
  Cycle:     24 Energy:       -56.193178  Gnorm:      0.073334  CPU:    1.042
  Cycle:     25 Energy:       -56.193209  Gnorm:      0.014651  CPU:    1.071
  Cycle:     26 Energy:       -56.193213  Gnorm:      0.006982  CPU:    1.101
  Cycle:     27 Energy:       -56.193214  Gnorm:      0.004663  CPU:    1.135


  **** Optimisation achieved ****


  Final energy =     -56.19321393 eV
  Final Gnorm  =       0.00046871

  Components of energy : 

--------------------------------------------------------------------------------
  Interatomic potentials     =           6.72729955 eV
  Monopole - monopole (real) =         -16.19795792 eV
  Monopole - monopole (recip)=         -46.72255557 eV
  Monopole - monopole (total)=         -62.92051349 eV
--------------------------------------------------------------------------------
  Total lattice energy : 
    Primitive unit cell      =         -56.19321393 eV
    Non-primitive unit cell  =        -168.57964180 eV
--------------------------------------------------------------------------------
  Total lattice energy (in kJmol-1): 
    Primitive unit cell      =           -5421.7862 kJ/(mole unit cells)
    Non-primitive unit cell  =          -16265.3585 kJ/(mole unit cells)
--------------------------------------------------------------------------------

  Final asymmetric unit coordinates :

--------------------------------------------------------------------------------
   No.  Atomic        x           y           z         Radius
        Label       (Frac)      (Frac)      (Frac)       (Angs) 
--------------------------------------------------------------------------------
     1  Tb    c     0.000000    0.000000    0.000000    0.000000
     2  Ba    c     0.000000    0.000000    0.250000    0.000000
     3  O     c     0.462400    0.000000    0.250000    0.000000
     4  O     s     0.462400    0.000000    0.250000    0.000000
--------------------------------------------------------------------------------

  Final Cartesian lattice vectors (Angstroms) :

        2.573509    1.485816    7.008086
       -2.573509    1.485816    7.008086
        0.000000   -2.971632    7.008086


  Final cell parameters and derivatives :

--------------------------------------------------------------------------------
       a            7.612087 Angstrom     dE/de1(xx)    -0.000561 eV/strain
       b            7.612087 Angstrom     dE/de2(yy)     0.000000 eV/strain
       c            7.612087 Angstrom     dE/de3(zz)     0.000751 eV/strain
       alpha       39.520118 Degrees      dE/de4(yz)     0.000000 eV/strain
       beta        39.520118 Degrees      dE/de5(xz)     0.000000 eV/strain
       gamma       39.520118 Degrees      dE/de6(xy)     0.000000 eV/strain
--------------------------------------------------------------------------------

  Primitive cell volume =           160.783504 Angs**3

  Density of cell =      7.111006 g/cm**3

  Non-primitive lattice parameters :

  a    =     5.147018  b   =     5.147018  c    =    21.024258
  alpha=    90.000000  beta=    90.000000  gamma=   120.000000

  Non-primitive cell volume =           482.350512 Angs**3


  Final internal derivatives :

--------------------------------------------------------------------------------
   No.  Atomic          a             b             c           Radius
        Label          (eV)          (eV)          (eV)        (eV/Angs)
--------------------------------------------------------------------------------
      1 Tb    c       0.000000      0.000000      0.000000      0.000000
      2 Ba    c       0.000000      0.000000      0.000000      0.000000
      3 O     c       0.000000      0.000000      0.000000      0.000000
      4 O     s       0.000000      0.000000      0.000000      0.000000
--------------------------------------------------------------------------------
  Maximum abs         0.000000      0.000000      0.000000      0.000000
--------------------------------------------------------------------------------


  Born effective charge tensors : 

-------------------------------------------------------------------------------
  Atom             x           y             z
-------------------------------------------------------------------------------
   1 Tb    x       0.4545     -0.0027      0.0000
           y       0.0027      0.4545      0.0000
           z       0.0000      0.0000      0.2605
-------------------------------------------------------------------------------
   2 Ba    x       2.1045      0.0000      0.0000
           y       0.0000      2.1045      0.0000
           z       0.0000      0.0000      2.0425
-------------------------------------------------------------------------------
   3 O     x      -0.9421      0.0000      0.0000
           y       0.0000     -0.7639      0.1409
           z       0.0000      0.0783     -0.7677
-------------------------------------------------------------------------------




  Elastic Constant Matrix: (Units=GPa)

-------------------------------------------------------------------------------
  Indices      1         2         3         4         5         6    
-------------------------------------------------------------------------------
       1    241.9489  221.7748   21.8802   -5.0232    0.0000    0.0000
       2    221.7748  241.9489   21.8802    5.0232    0.0000    0.0000
       3     21.8802   21.8802   39.7623    0.0000    0.0000    0.0000
       4     -5.0232    5.0232    0.0000   33.1138    0.0000    0.0000
       5      0.0000    0.0000    0.0000    0.0000   33.1138   -5.0232
       6      0.0000    0.0000    0.0000    0.0000   -5.0232   10.0871
-------------------------------------------------------------------------------


  Elastic Compliance Matrix: (Units=1/GPa)

-------------------------------------------------------------------------------
  Indices      1         2         3         4         5         6    
-------------------------------------------------------------------------------
       1    0.027947 -0.025672 -0.001252  0.008134  0.000000  0.000000
       2   -0.025672  0.027947 -0.001252 -0.008134  0.000000  0.000000
       3   -0.001252 -0.001252  0.026527  0.000000  0.000000  0.000000
       4    0.008134 -0.008134  0.000000  0.032667  0.000000  0.000000
       5    0.000000  0.000000  0.000000  0.000000  0.032667  0.016267
       6    0.000000  0.000000  0.000000  0.000000  0.016267  0.107238
-------------------------------------------------------------------------------

  Mechanical properties :

-------------------------------------------------------------------------------
  Convention :                    Reuss         Voigt         Hill
-------------------------------------------------------------------------------
  Bulk  Modulus (GPa)     =      38.35898     117.19231      77.77565
  Shear Modulus (GPa)     =      15.62344      32.47125      24.04735
-------------------------------------------------------------------------------
  Velocity S-wave (km/s)  =       1.48225       2.13690       1.83894
  Velocity P-wave (km/s)  =       2.88509       4.75067       3.93018
-------------------------------------------------------------------------------
  Compressibility (1/GPa) =    0.02606951
-------------------------------------------------------------------------------
  Stress axis :                     x             y             z
-------------------------------------------------------------------------------
  Youngs Moduli (GPa)     =      35.78239      35.78239      37.69754
-------------------------------------------------------------------------------
  Poissons Ratio (x)      =                     0.91861       0.04718
  Poissons Ratio (y)      =       0.91861                     0.04718
  Poissons Ratio (z)      =       0.04479       0.04479
-------------------------------------------------------------------------------


  Piezoelectric Strain Matrix: (Units=C/m**2)

-------------------------------------------------------------------------------
  Indices      1         2         3         4         5         6    
-------------------------------------------------------------------------------
       x     0.00000   0.00000   0.00000   0.00000   0.00000   0.00000
       y     0.00000   0.00000   0.00000   0.00000   0.00000   0.00000
       z     0.00000   0.00000   0.00000   0.00000   0.00000   0.00000
-------------------------------------------------------------------------------


  Piezoelectric Stress Matrix: (Units=10**-11 C/N)

-------------------------------------------------------------------------------
  Indices      1         2         3         4         5         6    
-------------------------------------------------------------------------------
       x     0.00000   0.00000   0.00000   0.00000   0.00000   0.00000
       y     0.00000   0.00000   0.00000   0.00000   0.00000   0.00000
       z     0.00000   0.00000   0.00000   0.00000   0.00000   0.00000
-------------------------------------------------------------------------------


  Static dielectric constant tensor : 

-------------------------------------------------------------------------------
              x         y         z
-------------------------------------------------------------------------------
       x     2.20223   0.00000   0.00000
       y     0.00000   2.20223   0.00000
       z     0.00000   0.00000  22.47612
--------------------------------------------------------------------------------

  High frequency dielectric constant tensor : 

-------------------------------------------------------------------------------
              x         y         z
-------------------------------------------------------------------------------
       x     1.54852   0.00000   0.00000
       y     0.00000   1.54852   0.00000
       z     0.00000   0.00000   1.47342
-------------------------------------------------------------------------------

  Static refractive indices : 

-------------------------------------------------------------------------------
    1 =    1.48399      2 =    1.48399      3 =    4.74090
-------------------------------------------------------------------------------

  High frequency refractive indices : 

-------------------------------------------------------------------------------
    1 =    1.21385      2 =    1.24440      3 =    1.24440
-------------------------------------------------------------------------------


  Time to end of optimisation =       1.2152 seconds


  Peak dynamic memory used =       0.85 MB 


  Timing analysis for GULP :

--------------------------------------------------------------------------------
  Task / Subroutine                                          Time (Seconds)
--------------------------------------------------------------------------------
  Calculation of reciprocal space energy and derivatives          0.0029
  Calculation of reciprocal space energy using symmetry           0.0128
  Calculation of real space energy and derivatives                0.0478
  Calculation of real space energy using symmetry                 1.1458
  Symmetry generation of equivalent positions                     0.0006
--------------------------------------------------------------------------------
  Total CPU time                                                  1.2153
--------------------------------------------------------------------------------


  CIF file written as perov.cif                                               


  Job Finished at 09:31.36  6th April      2017                               

