********************************************************************************
*                       GENERAL UTILITY LATTICE PROGRAM                        *
*                                 Julian Gale                                  *
*                      Nanochemistry Research Institute                        *
*                           Department of Chemistry                            *
*                    Curtin University, Western Australia                      *
********************************************************************************
* Version = 4.3.2 * Last modified =  3rd March 2015                            *
********************************************************************************
*  optimise     - perform optimisation run                                     *
*  cell_only    - only optimise unit cell                                      *
*  property     - calculate properties for final geometry                      *
********************************************************************************

  Job Started  at 09:31.31  6th April      2017                               

  Number of CPUs =     1


  Total number of configurations input =   1

********************************************************************************
*  Input for Configuration =   1                                               *
********************************************************************************

  Formula = Tb2Ba2O6                                                    

  Number of irreducible atoms/shells =       4


  Total number atoms/shells =      16

  Dimensionality = 3               :  Bulk   


  Symmetry :

  Crystal family                   :  Hexagonal   
  Crystal class  (Groth - 1921)    :  Ditrigonal Scalenohedral             

  Space group (centrosymmetric)    :  R -3 C          

  Patterson group                  :  R -3 m   

  Cartesian lattice vectors (Angstroms) :

        3.039900    1.755087    4.922700
       -3.039900    1.755087    4.922700
        0.000000   -3.510174    4.922700

  Primitive cell parameters :            Full cell parameters :

  a =   6.0460    alpha =  60.3700       a =   6.0798    alpha =  90.0000
  b =   6.0460    beta  =  60.3700       b =   6.0798    beta  =  90.0000
  c =   6.0460    gamma =  60.3700       c =  14.7681    gamma = 120.0000

  Initial volumes (Angstroms**3):

  Primitive cell =         157.584170    Full cell =         472.752509

  Temperature of configuration =  0.000     K 

  Pressure of configuration =         0.000 GPa 

  Fractional coordinates of asymmetric unit :

--------------------------------------------------------------------------------
   No.  Atomic       x           y          z         Charge      Occupancy
        Label      (Frac)      (Frac)     (Frac)        (e)         (Frac)  
--------------------------------------------------------------------------------
      1 Tb    c    0.000000    0.000000    0.000000     0.60000    1.000000    
      2 Ba    c    0.000000    0.000000    0.250000     1.60000    1.000000    
      3 O     c    0.462400    0.000000    0.250000     0.37800    1.000000    
      4 O     s    0.462400    0.000000    0.250000    -1.11133    1.000000    
--------------------------------------------------------------------------------


  Constraints : 

--------------------------------------------------------------------------------
  Constraint no.      Unconstrained     Constrained    Coefficient    Offset
                         Variable         Variable
--------------------------------------------------------------------------------
           1              Strain 1        Strain 2       1.00000      0.0000
--------------------------------------------------------------------------------


********************************************************************************
*  General input information                                                   *
********************************************************************************

  Species output for all configurations : 

--------------------------------------------------------------------------------
  Species    Type    Atomic    Atomic    Charge       Radii (Angs)     Library
                     Number     Mass       (e)     Cova   Ionic  VDW   Symbol
--------------------------------------------------------------------------------
    Tb       Core       65     158.93   0.600000   1.760  0.000  2.630          
    Ba       Core       56     137.33   1.600000   1.340  0.000  2.000          
    O        Core        8      16.00   0.378000   0.730  0.000  1.360          
    O        Shell       8       0.00  -1.111333   0.730  0.000  1.360          
--------------------------------------------------------------------------------


  Lattice summation method               =    Ewald          (3-D)
                                         =    Parry          (2-D)
                                         =    Saunders et al (1-D)
  Accuracy factor for lattice sums       =   12.000


  Time limit = Infinity

  Maximum range for interatomic potentials =    100000.000000 Angstroms

  General interatomic potentials :

--------------------------------------------------------------------------------
Atom  Types   Potential         A         B         C         D     Cutoffs(Ang)
  1     2                                                            Min    Max 
--------------------------------------------------------------------------------
Ba   c Ba   c Buckingham    0.219E+04 0.192      0.00      0.00     0.000 40.000
Tb   c O    s Buckingham    0.148E+04 0.266      0.00      0.00     0.000 40.000
O    s O    s Buckingham     912.     0.271      13.8      0.00     0.000 40.000
Ba   c O    s Buckingham    0.352E+04 0.267      0.00      0.00     0.000 40.000
O    c O    s Spring (c-s)   15.8      0.00      0.00      0.00     0.000  0.800
--------------------------------------------------------------------------------

********************************************************************************
*  Output for configuration   1                                                *
********************************************************************************


  Components of energy : 

--------------------------------------------------------------------------------
  Interatomic potentials     =           6.37876336 eV
  Monopole - monopole (real) =         -10.74777274 eV
  Monopole - monopole (recip)=         -29.55585788 eV
  Monopole - monopole (total)=         -40.30363062 eV
--------------------------------------------------------------------------------
  Total lattice energy : 
    Primitive unit cell      =         -33.92486726 eV
    Non-primitive unit cell  =        -101.77460177 eV
--------------------------------------------------------------------------------
  Total lattice energy (in kJmol-1): 
    Primitive unit cell      =           -3273.2311 kJ/(mole unit cells)
    Non-primitive unit cell  =           -9819.6933 kJ/(mole unit cells)
--------------------------------------------------------------------------------


  Number of variables =        2

  Maximum number of calculations  =          1000
  Maximum Hessian update interval =            10
  Maximum step size               =   1.000000000
  Maximum parameter tolerance     =   0.000010000
  Maximum function  tolerance     =   0.000010000
  Maximum gradient  tolerance     =   0.001000000
  Maximum gradient  component     =   0.010000000

  Symmetry constrained optimisation

  Symmetry used for second derivatives

  Cell parameters to be optimised using strains

  Newton-Raphson optimiser to be used

  BFGS hessian update to be used

  Start of bulk optimisation :

  Cycle:      0 Energy:       -33.924867  Gnorm:      6.314257  CPU:    0.022
  ** Hessian calculated **
  Cycle:      1 Energy:       -34.164215  Gnorm:      2.601038  CPU:    0.046
  Cycle:      2 Energy:       -34.291592  Gnorm:      0.985258  CPU:    0.069
  Cycle:      3 Energy:       -34.304091  Gnorm:      0.048876  CPU:    0.098
  Cycle:      4 Energy:       -34.304745  Gnorm:      0.016846  CPU:    0.126


  **** Optimisation achieved ****


  Final energy =     -34.30475034 eV
  Final Gnorm  =       0.00079922

  Components of energy : 

--------------------------------------------------------------------------------
  Interatomic potentials     =           4.09590723 eV
  Monopole - monopole (real) =         -10.23056187 eV
  Monopole - monopole (recip)=         -28.17009570 eV
  Monopole - monopole (total)=         -38.40065757 eV
--------------------------------------------------------------------------------
  Total lattice energy : 
    Primitive unit cell      =         -34.30475034 eV
    Non-primitive unit cell  =        -102.91425101 eV
--------------------------------------------------------------------------------
  Total lattice energy (in kJmol-1): 
    Primitive unit cell      =           -3309.8840 kJ/(mole unit cells)
    Non-primitive unit cell  =           -9929.6520 kJ/(mole unit cells)
--------------------------------------------------------------------------------

  Final asymmetric unit coordinates :

--------------------------------------------------------------------------------
   No.  Atomic        x           y           z         Radius
        Label       (Frac)      (Frac)      (Frac)       (Angs) 
--------------------------------------------------------------------------------
     1  Tb    c     0.000000    0.000000    0.000000    0.000000
     2  Ba    c     0.000000    0.000000    0.250000    0.000000
     3  O     c     0.462400    0.000000    0.250000    0.000000
     4  O     s     0.462400    0.000000    0.250000    0.000000
--------------------------------------------------------------------------------

  Final Cartesian lattice vectors (Angstroms) :

        3.211441    1.854127    5.094402
       -3.211441    1.854127    5.094402
        0.000000   -3.708253    5.094402


  Final cell parameters and derivatives :

--------------------------------------------------------------------------------
       a            6.301117 Angstrom     dE/de1(xx)    -0.001315 eV/strain
       b            6.301117 Angstrom     dE/de2(yy)     0.000000 eV/strain
       c            6.301117 Angstrom     dE/de3(zz)    -0.000909 eV/strain
       alpha       61.282672 Degrees      dE/de4(yz)     0.000000 eV/strain
       beta        61.282672 Degrees      dE/de5(xz)     0.000000 eV/strain
       gamma       61.282672 Degrees      dE/de6(xy)     0.000000 eV/strain
--------------------------------------------------------------------------------

  Primitive cell volume =           182.005198 Angs**3

  Density of cell =      6.281867 g/cm**3

  Non-primitive lattice parameters :

  a    =     6.422883  b   =     6.422883  c    =    15.283205
  alpha=    90.000000  beta=    90.000000  gamma=   120.000000

  Non-primitive cell volume =           546.015595 Angs**3


  Final internal derivatives :

--------------------------------------------------------------------------------
   No.  Atomic          a             b             c           Radius
        Label          (eV)          (eV)          (eV)        (eV/Angs)
--------------------------------------------------------------------------------
      1 Tb    c       0.000000      0.000000      0.000000      0.000000
      2 Ba    c       0.000000      0.000000      0.000000      0.000000
      3 O     c       0.000000      0.000000      0.000000      0.000000
      4 O     s       0.000000      0.000000      0.000000      0.000000
--------------------------------------------------------------------------------
  Maximum abs         0.000000      0.000000      0.000000      0.000000
--------------------------------------------------------------------------------


  Born effective charge tensors : 

-------------------------------------------------------------------------------
  Atom             x           y             z
-------------------------------------------------------------------------------
   1 Tb    x       0.2859     -0.0116      0.0000
           y       0.0116      0.2859      0.0000
           z       0.0000      0.0000      0.3108
-------------------------------------------------------------------------------
   2 Ba    x       1.7933      0.0000      0.0000
           y       0.0000      1.7933      0.0000
           z       0.0000      0.0000      1.8123
-------------------------------------------------------------------------------
   3 O     x      -0.8211      0.0000      0.0000
           y       0.0000     -0.5651      0.1909
           z       0.0000      0.1962     -0.7077
-------------------------------------------------------------------------------




  Elastic Constant Matrix: (Units=GPa)

-------------------------------------------------------------------------------
  Indices      1         2         3         4         5         6    
-------------------------------------------------------------------------------
       1     44.8111   14.4837   26.7481  -19.7856    0.0000    0.0000
       2     14.4837   44.8111   26.7481   19.7856    0.0000    0.0000
       3     26.7481   26.7481   26.4898    0.0000    0.0000    0.0000
       4    -19.7856   19.7856    0.0000   27.2035    0.0000    0.0000
       5      0.0000    0.0000    0.0000    0.0000   27.2035  -19.7856
       6      0.0000    0.0000    0.0000    0.0000  -19.7856   15.1637
-------------------------------------------------------------------------------


  Elastic Compliance Matrix: (Units=1/GPa)

-------------------------------------------------------------------------------
  Indices      1         2         3         4         5         6    
-------------------------------------------------------------------------------
       1    0.418036 -0.228533 -0.191351  0.470261  0.000000  0.000000
       2   -0.228533  0.418036 -0.191351 -0.470261  0.000000  0.000000
       3   -0.191351 -0.191351  0.424184  0.000000  0.000000  0.000000
       4    0.470261 -0.470261  0.000000  0.720818  0.000000  0.000000
       5    0.000000  0.000000  0.000000  0.000000  0.720818  0.940522
       6    0.000000  0.000000  0.000000  0.000000  0.940522  1.293139
-------------------------------------------------------------------------------

  Mechanical properties :

-------------------------------------------------------------------------------
  Convention :                    Reuss         Voigt         Hill
-------------------------------------------------------------------------------
  Bulk  Modulus (GPa)     =      26.46457      28.00799      27.23628
  Shear Modulus (GPa)     =       0.95601      17.12298       9.03949
-------------------------------------------------------------------------------
  Velocity S-wave (km/s)  =       0.39011       1.65099       1.19958
  Velocity P-wave (km/s)  =       2.10137       2.84481       2.50087
-------------------------------------------------------------------------------
  Compressibility (1/GPa) =    0.03778637
-------------------------------------------------------------------------------
  Stress axis :                     x             y             z
-------------------------------------------------------------------------------
  Youngs Moduli (GPa)     =       2.39214       2.39214       2.35747
-------------------------------------------------------------------------------
  Poissons Ratio (x)      =                     0.54668       0.45110
  Poissons Ratio (y)      =       0.54668                     0.45110
  Poissons Ratio (z)      =       0.45774       0.45774
-------------------------------------------------------------------------------


  Piezoelectric Strain Matrix: (Units=C/m**2)

-------------------------------------------------------------------------------
  Indices      1         2         3         4         5         6    
-------------------------------------------------------------------------------
       x     0.00000   0.00000   0.00000   0.00000   0.00000   0.00000
       y     0.00000   0.00000   0.00000   0.00000   0.00000   0.00000
       z     0.00000   0.00000   0.00000   0.00000   0.00000   0.00000
-------------------------------------------------------------------------------


  Piezoelectric Stress Matrix: (Units=10**-11 C/N)

-------------------------------------------------------------------------------
  Indices      1         2         3         4         5         6    
-------------------------------------------------------------------------------
       x     0.00000   0.00000   0.00000   0.00000   0.00000   0.00000
       y     0.00000   0.00000   0.00000   0.00000   0.00000   0.00000
       z     0.00000   0.00000   0.00000   0.00000   0.00000   0.00000
-------------------------------------------------------------------------------


  Static dielectric constant tensor : 

-------------------------------------------------------------------------------
              x         y         z
-------------------------------------------------------------------------------
       x    -3.38051   0.00000   0.00000
       y     0.00000  -3.38051   0.00000
       z     0.00000   0.00000  -2.30368
--------------------------------------------------------------------------------

  High frequency dielectric constant tensor : 

-------------------------------------------------------------------------------
              x         y         z
-------------------------------------------------------------------------------
       x     1.47133   0.00000   0.00000
       y     0.00000   1.47133   0.00000
       z     0.00000   0.00000   1.47909
-------------------------------------------------------------------------------

  Static refractive indices : 

-------------------------------------------------------------------------------
    1 =   -1.83862      2 =   -1.83862      3 =   -1.51779
-------------------------------------------------------------------------------

  High frequency refractive indices : 

-------------------------------------------------------------------------------
    1 =    1.21298      2 =    1.21298      3 =    1.21618
-------------------------------------------------------------------------------


  Time to end of optimisation =       0.1896 seconds


  Peak dynamic memory used =       0.82 MB 


  Timing analysis for GULP :

--------------------------------------------------------------------------------
  Task / Subroutine                                          Time (Seconds)
--------------------------------------------------------------------------------
  Calculation of reciprocal space energy and derivatives          0.0010
  Calculation of reciprocal space energy using symmetry           0.0019
  Calculation of real space energy and derivatives                0.0387
  Calculation of real space energy using symmetry                 0.1447
  Symmetry generation of equivalent positions                     0.0003
--------------------------------------------------------------------------------
  Total CPU time                                                  0.1897
--------------------------------------------------------------------------------


  CIF file written as perov.cif                                               


  Job Finished at 09:31.31  6th April      2017                               

