********************************************************************************
*                       GENERAL UTILITY LATTICE PROGRAM                        *
*                                 Julian Gale                                  *
*                      Nanochemistry Research Institute                        *
*                           Department of Chemistry                            *
*                    Curtin University, Western Australia                      *
********************************************************************************
* Version = 4.3.2 * Last modified =  3rd March 2015                            *
********************************************************************************
*  optimise     - perform optimisation run                                     *
*  cell_only    - only optimise unit cell                                      *
*  property     - calculate properties for final geometry                      *
********************************************************************************

  Job Started  at 09:31.48  6th April      2017                               

  Number of CPUs =     1


  Total number of configurations input =   1

********************************************************************************
*  Input for Configuration =   1                                               *
********************************************************************************

  Formula = Tb2Ba2O6                                                    

  Number of irreducible atoms/shells =       4


  Total number atoms/shells =      16

  Dimensionality = 3               :  Bulk   


  Symmetry :

  Crystal family                   :  Hexagonal   
  Crystal class  (Groth - 1921)    :  Ditrigonal Scalenohedral             

  Space group (centrosymmetric)    :  R -3 C          

  Patterson group                  :  R -3 m   

  Cartesian lattice vectors (Angstroms) :

        3.039900    1.755087    4.922700
       -3.039900    1.755087    4.922700
        0.000000   -3.510174    4.922700

  Primitive cell parameters :            Full cell parameters :

  a =   6.0460    alpha =  60.3700       a =   6.0798    alpha =  90.0000
  b =   6.0460    beta  =  60.3700       b =   6.0798    beta  =  90.0000
  c =   6.0460    gamma =  60.3700       c =  14.7681    gamma = 120.0000

  Initial volumes (Angstroms**3):

  Primitive cell =         157.584170    Full cell =         472.752509

  Temperature of configuration =  0.000     K 

  Pressure of configuration =         0.000 GPa 

  Fractional coordinates of asymmetric unit :

--------------------------------------------------------------------------------
   No.  Atomic       x           y          z         Charge      Occupancy
        Label      (Frac)      (Frac)     (Frac)        (e)         (Frac)  
--------------------------------------------------------------------------------
      1 Tb    c    0.000000    0.000000    0.000000     1.00000    1.000000    
      2 Ba    c    0.000000    0.000000    0.250000     2.20000    1.000000    
      3 O     c    0.462400    0.000000    0.250000     0.37800    1.000000    
      4 O     s    0.462400    0.000000    0.250000    -1.44467    1.000000    
--------------------------------------------------------------------------------


  Constraints : 

--------------------------------------------------------------------------------
  Constraint no.      Unconstrained     Constrained    Coefficient    Offset
                         Variable         Variable
--------------------------------------------------------------------------------
           1              Strain 1        Strain 2       1.00000      0.0000
--------------------------------------------------------------------------------


********************************************************************************
*  General input information                                                   *
********************************************************************************

  Species output for all configurations : 

--------------------------------------------------------------------------------
  Species    Type    Atomic    Atomic    Charge       Radii (Angs)     Library
                     Number     Mass       (e)     Cova   Ionic  VDW   Symbol
--------------------------------------------------------------------------------
    Tb       Core       65     158.93   1.000000   1.760  0.000  2.630          
    Ba       Core       56     137.33   2.200000   1.340  0.000  2.000          
    O        Core        8      16.00   0.378000   0.730  0.000  1.360          
    O        Shell       8       0.00  -1.444667   0.730  0.000  1.360          
--------------------------------------------------------------------------------


  Lattice summation method               =    Ewald          (3-D)
                                         =    Parry          (2-D)
                                         =    Saunders et al (1-D)
  Accuracy factor for lattice sums       =   12.000


  Time limit = Infinity

  Maximum range for interatomic potentials =    100000.000000 Angstroms

  General interatomic potentials :

--------------------------------------------------------------------------------
Atom  Types   Potential         A         B         C         D     Cutoffs(Ang)
  1     2                                                            Min    Max 
--------------------------------------------------------------------------------
Ba   c Ba   c Buckingham    0.219E+04 0.192      0.00      0.00     0.000 40.000
Tb   c O    s Buckingham    0.148E+04 0.266      0.00      0.00     0.000 40.000
O    s O    s Buckingham     912.     0.271      13.8      0.00     0.000 40.000
Ba   c O    s Buckingham    0.352E+04 0.267      0.00      0.00     0.000 40.000
O    c O    s Spring (c-s)   26.8      0.00      0.00      0.00     0.000  0.800
--------------------------------------------------------------------------------

********************************************************************************
*  Output for configuration   1                                                *
********************************************************************************


  Components of energy : 

--------------------------------------------------------------------------------
  Interatomic potentials     =           6.37876336 eV
  Monopole - monopole (real) =         -23.62617417 eV
  Monopole - monopole (recip)=         -60.59104896 eV
  Monopole - monopole (total)=         -84.21722314 eV
--------------------------------------------------------------------------------
  Total lattice energy : 
    Primitive unit cell      =         -77.83845977 eV
    Non-primitive unit cell  =        -233.51537931 eV
--------------------------------------------------------------------------------
  Total lattice energy (in kJmol-1): 
    Primitive unit cell      =           -7510.2215 kJ/(mole unit cells)
    Non-primitive unit cell  =          -22530.6645 kJ/(mole unit cells)
--------------------------------------------------------------------------------


  Number of variables =        2

  Maximum number of calculations  =          1000
  Maximum Hessian update interval =            10
  Maximum step size               =   1.000000000
  Maximum parameter tolerance     =   0.000010000
  Maximum function  tolerance     =   0.000010000
  Maximum gradient  tolerance     =   0.001000000
  Maximum gradient  component     =   0.010000000

  Symmetry constrained optimisation

  Symmetry used for second derivatives

  Cell parameters to be optimised using strains

  Newton-Raphson optimiser to be used

  BFGS hessian update to be used

  Start of bulk optimisation :

  Cycle:      0 Energy:       -77.838460  Gnorm:     10.215434  CPU:    0.023
  ** Hessian calculated **
  Cycle:      1 Energy:       -78.648536  Gnorm:      2.078941  CPU:    0.052
  Cycle:      2 Energy:       -78.671718  Gnorm:      0.535460  CPU:    0.080
  Cycle:      3 Energy:       -78.673471  Gnorm:      0.000284  CPU:    0.116


  **** Optimisation achieved ****


  Final energy =     -78.67347115 eV
  Final Gnorm  =       0.00000614

  Components of energy : 

--------------------------------------------------------------------------------
  Interatomic potentials     =          10.50337178 eV
  Monopole - monopole (real) =         -25.02147568 eV
  Monopole - monopole (recip)=         -64.15536725 eV
  Monopole - monopole (total)=         -89.17684293 eV
--------------------------------------------------------------------------------
  Total lattice energy : 
    Primitive unit cell      =         -78.67347115 eV
    Non-primitive unit cell  =        -236.02041344 eV
--------------------------------------------------------------------------------
  Total lattice energy (in kJmol-1): 
    Primitive unit cell      =           -7590.7873 kJ/(mole unit cells)
    Non-primitive unit cell  =          -22772.3620 kJ/(mole unit cells)
--------------------------------------------------------------------------------

  Final asymmetric unit coordinates :

--------------------------------------------------------------------------------
   No.  Atomic        x           y           z         Radius
        Label       (Frac)      (Frac)      (Frac)       (Angs) 
--------------------------------------------------------------------------------
     1  Tb    c     0.000000    0.000000    0.000000    0.000000
     2  Ba    c     0.000000    0.000000    0.250000    0.000000
     3  O     c     0.462400    0.000000    0.250000    0.000000
     4  O     s     0.462400    0.000000    0.250000    0.000000
--------------------------------------------------------------------------------

  Final Cartesian lattice vectors (Angstroms) :

        2.867005    1.655266    4.662229
       -2.867005    1.655266    4.662229
        0.000000   -3.310532    4.662229


  Final cell parameters and derivatives :

--------------------------------------------------------------------------------
       a            5.718042 Angstrom     dE/de1(xx)     0.000012 eV/strain
       b            5.718042 Angstrom     dE/de2(yy)     0.000000 eV/strain
       c            5.718042 Angstrom     dE/de3(zz)    -0.000002 eV/strain
       alpha       60.184836 Degrees      dE/de4(yz)     0.000000 eV/strain
       beta        60.184836 Degrees      dE/de5(xz)     0.000000 eV/strain
       gamma       60.184836 Degrees      dE/de6(xy)     0.000000 eV/strain
--------------------------------------------------------------------------------

  Primitive cell volume =           132.751992 Angs**3

  Density of cell =      8.612545 g/cm**3

  Non-primitive lattice parameters :

  a    =     5.734009  b   =     5.734009  c    =    13.986687
  alpha=    90.000000  beta=    90.000000  gamma=   120.000000

  Non-primitive cell volume =           398.255977 Angs**3


  Final internal derivatives :

--------------------------------------------------------------------------------
   No.  Atomic          a             b             c           Radius
        Label          (eV)          (eV)          (eV)        (eV/Angs)
--------------------------------------------------------------------------------
      1 Tb    c       0.000000      0.000000      0.000000      0.000000
      2 Ba    c       0.000000      0.000000      0.000000      0.000000
      3 O     c       0.000000      0.000000      0.000000      0.000000
      4 O     s       0.000000      0.000000      0.000000      0.000000
--------------------------------------------------------------------------------
  Maximum abs         0.000000      0.000000      0.000000      0.000000
--------------------------------------------------------------------------------


  Born effective charge tensors : 

-------------------------------------------------------------------------------
  Atom             x           y             z
-------------------------------------------------------------------------------
   1 Tb    x       0.4988     -0.0151      0.0000
           y       0.0151      0.4988      0.0000
           z       0.0000      0.0000      0.5111
-------------------------------------------------------------------------------
   2 Ba    x       2.5096      0.0000      0.0000
           y       0.0000      2.5096      0.0000
           z       0.0000      0.0000      2.5439
-------------------------------------------------------------------------------
   3 O     x      -1.1743      0.0000      0.0000
           y       0.0000     -0.8314      0.2617
           z       0.0000      0.2639     -1.0183
-------------------------------------------------------------------------------




  Elastic Constant Matrix: (Units=GPa)

-------------------------------------------------------------------------------
  Indices      1         2         3         4         5         6    
-------------------------------------------------------------------------------
       1    133.8354   38.8062   68.9945  -44.4003    0.0000    0.0000
       2     38.8062  133.8354   68.9945   44.4003    0.0000    0.0000
       3     68.9945   68.9945   89.4038    0.0000    0.0000    0.0000
       4    -44.4003   44.4003    0.0000   71.7145    0.0000    0.0000
       5      0.0000    0.0000    0.0000    0.0000   71.7145  -44.4003
       6      0.0000    0.0000    0.0000    0.0000  -44.4003   47.5146
-------------------------------------------------------------------------------


  Elastic Compliance Matrix: (Units=1/GPa)

-------------------------------------------------------------------------------
  Indices      1         2         3         4         5         6    
-------------------------------------------------------------------------------
       1    0.020042 -0.004926 -0.011666  0.015459  0.000000  0.000000
       2   -0.004926  0.020042 -0.011666 -0.015459  0.000000  0.000000
       3   -0.011666 -0.011666  0.029190  0.000000  0.000000  0.000000
       4    0.015459 -0.015459  0.000000  0.033086  0.000000  0.000000
       5    0.000000  0.000000  0.000000  0.000000  0.033086  0.030917
       6    0.000000  0.000000  0.000000  0.000000  0.030917  0.049937
-------------------------------------------------------------------------------

  Mechanical properties :

-------------------------------------------------------------------------------
  Convention :                    Reuss         Voigt         Hill
-------------------------------------------------------------------------------
  Bulk  Modulus (GPa)     =      78.36545      78.96279      78.66412
  Shear Modulus (GPa)     =      20.31262      50.20737      35.25999
-------------------------------------------------------------------------------
  Velocity S-wave (km/s)  =       1.53574       2.41445       2.02337
  Velocity P-wave (km/s)  =       3.49909       4.11596       3.82000
-------------------------------------------------------------------------------
  Compressibility (1/GPa) =    0.01276073
-------------------------------------------------------------------------------
  Stress axis :                     x             y             z
-------------------------------------------------------------------------------
  Youngs Moduli (GPa)     =      49.89398      49.89398      34.25783
-------------------------------------------------------------------------------
  Poissons Ratio (x)      =                     0.24578       0.39964
  Poissons Ratio (y)      =       0.24578                     0.39964
  Poissons Ratio (z)      =       0.58205       0.58205
-------------------------------------------------------------------------------


  Piezoelectric Strain Matrix: (Units=C/m**2)

-------------------------------------------------------------------------------
  Indices      1         2         3         4         5         6    
-------------------------------------------------------------------------------
       x     0.00000   0.00000   0.00000   0.00000   0.00000   0.00000
       y     0.00000   0.00000   0.00000   0.00000   0.00000   0.00000
       z     0.00000   0.00000   0.00000   0.00000   0.00000   0.00000
-------------------------------------------------------------------------------


  Piezoelectric Stress Matrix: (Units=10**-11 C/N)

-------------------------------------------------------------------------------
  Indices      1         2         3         4         5         6    
-------------------------------------------------------------------------------
       x     0.00000   0.00000   0.00000   0.00000   0.00000   0.00000
       y     0.00000   0.00000   0.00000   0.00000   0.00000   0.00000
       z     0.00000   0.00000   0.00000   0.00000   0.00000   0.00000
-------------------------------------------------------------------------------


  Static dielectric constant tensor : 

-------------------------------------------------------------------------------
              x         y         z
-------------------------------------------------------------------------------
       x    -5.96603   0.00000   0.00000
       y     0.00000  -5.96603   0.00000
       z     0.00000   0.00000  -3.89217
--------------------------------------------------------------------------------

  High frequency dielectric constant tensor : 

-------------------------------------------------------------------------------
              x         y         z
-------------------------------------------------------------------------------
       x     1.64292   0.00000   0.00000
       y     0.00000   1.64292   0.00000
       z     0.00000   0.00000   1.65091
-------------------------------------------------------------------------------

  Static refractive indices : 

-------------------------------------------------------------------------------
    1 =   -2.44255      2 =   -2.44255      3 =   -1.97286
-------------------------------------------------------------------------------

  High frequency refractive indices : 

-------------------------------------------------------------------------------
    1 =    1.28177      2 =    1.28177      3 =    1.28488
-------------------------------------------------------------------------------


  Time to end of optimisation =       0.1963 seconds


  Peak dynamic memory used =       0.93 MB 


  Timing analysis for GULP :

--------------------------------------------------------------------------------
  Task / Subroutine                                          Time (Seconds)
--------------------------------------------------------------------------------
  Calculation of reciprocal space energy and derivatives          0.0009
  Calculation of reciprocal space energy using symmetry           0.0016
  Calculation of real space energy and derivatives                0.0503
  Calculation of real space energy using symmetry                 0.1401
  Symmetry generation of equivalent positions                     0.0003
--------------------------------------------------------------------------------
  Total CPU time                                                  0.1964
--------------------------------------------------------------------------------


  CIF file written as perov.cif                                               


  Job Finished at 09:31.48  6th April      2017                               

