********************************************************************************
*                       GENERAL UTILITY LATTICE PROGRAM                        *
*                                 Julian Gale                                  *
*                      Nanochemistry Research Institute                        *
*                           Department of Chemistry                            *
*                    Curtin University, Western Australia                      *
********************************************************************************
* Version = 4.3.2 * Last modified =  3rd March 2015                            *
********************************************************************************
*  optimise     - perform optimisation run                                     *
*  cell_only    - only optimise unit cell                                      *
*  property     - calculate properties for final geometry                      *
********************************************************************************

  Job Started  at 09:31.27  6th April      2017                               

  Number of CPUs =     1


  Total number of configurations input =   1

********************************************************************************
*  Input for Configuration =   1                                               *
********************************************************************************

  Formula = Tb2Ba2O6                                                    

  Number of irreducible atoms/shells =       4


  Total number atoms/shells =      16

  Dimensionality = 3               :  Bulk   


  Symmetry :

  Crystal family                   :  Hexagonal   
  Crystal class  (Groth - 1921)    :  Ditrigonal Scalenohedral             

  Space group (centrosymmetric)    :  R -3 C          

  Patterson group                  :  R -3 m   

  Cartesian lattice vectors (Angstroms) :

        3.039900    1.755087    4.922700
       -3.039900    1.755087    4.922700
        0.000000   -3.510174    4.922700

  Primitive cell parameters :            Full cell parameters :

  a =   6.0460    alpha =  60.3700       a =   6.0798    alpha =  90.0000
  b =   6.0460    beta  =  60.3700       b =   6.0798    beta  =  90.0000
  c =   6.0460    gamma =  60.3700       c =  14.7681    gamma = 120.0000

  Initial volumes (Angstroms**3):

  Primitive cell =         157.584170    Full cell =         472.752509

  Temperature of configuration =  0.000     K 

  Pressure of configuration =         0.000 GPa 

  Fractional coordinates of asymmetric unit :

--------------------------------------------------------------------------------
   No.  Atomic       x           y          z         Charge      Occupancy
        Label      (Frac)      (Frac)     (Frac)        (e)         (Frac)  
--------------------------------------------------------------------------------
      1 Tb    c    0.000000    0.000000    0.000000     0.50000    1.000000    
      2 Ba    c    0.000000    0.000000    0.250000     1.60000    1.000000    
      3 O     c    0.462400    0.000000    0.250000     0.37800    1.000000    
      4 O     s    0.462400    0.000000    0.250000    -1.07800    1.000000    
--------------------------------------------------------------------------------


  Constraints : 

--------------------------------------------------------------------------------
  Constraint no.      Unconstrained     Constrained    Coefficient    Offset
                         Variable         Variable
--------------------------------------------------------------------------------
           1              Strain 1        Strain 2       1.00000      0.0000
--------------------------------------------------------------------------------


********************************************************************************
*  General input information                                                   *
********************************************************************************

  Species output for all configurations : 

--------------------------------------------------------------------------------
  Species    Type    Atomic    Atomic    Charge       Radii (Angs)     Library
                     Number     Mass       (e)     Cova   Ionic  VDW   Symbol
--------------------------------------------------------------------------------
    Tb       Core       65     158.93   0.500000   1.760  0.000  2.630          
    Ba       Core       56     137.33   1.600000   1.340  0.000  2.000          
    O        Core        8      16.00   0.378000   0.730  0.000  1.360          
    O        Shell       8       0.00  -1.078000   0.730  0.000  1.360          
--------------------------------------------------------------------------------


  Lattice summation method               =    Ewald          (3-D)
                                         =    Parry          (2-D)
                                         =    Saunders et al (1-D)
  Accuracy factor for lattice sums       =   12.000


  Time limit = Infinity

  Maximum range for interatomic potentials =    100000.000000 Angstroms

  General interatomic potentials :

--------------------------------------------------------------------------------
Atom  Types   Potential         A         B         C         D     Cutoffs(Ang)
  1     2                                                            Min    Max 
--------------------------------------------------------------------------------
Ba   c Ba   c Buckingham    0.219E+04 0.192      0.00      0.00     0.000 40.000
Tb   c O    s Buckingham    0.148E+04 0.266      0.00      0.00     0.000 40.000
O    s O    s Buckingham     912.     0.271      13.8      0.00     0.000 40.000
Ba   c O    s Buckingham    0.352E+04 0.267      0.00      0.00     0.000 40.000
O    c O    s Spring (c-s)   14.9      0.00      0.00      0.00     0.000  0.800
--------------------------------------------------------------------------------

********************************************************************************
*  Output for configuration   1                                                *
********************************************************************************


  Components of energy : 

--------------------------------------------------------------------------------
  Interatomic potentials     =           6.37876336 eV
  Monopole - monopole (real) =          -9.47556596 eV
  Monopole - monopole (recip)=         -27.79772652 eV
  Monopole - monopole (total)=         -37.27329248 eV
--------------------------------------------------------------------------------
  Total lattice energy : 
    Primitive unit cell      =         -30.89452912 eV
    Non-primitive unit cell  =         -92.68358736 eV
--------------------------------------------------------------------------------
  Total lattice energy (in kJmol-1): 
    Primitive unit cell      =           -2980.8498 kJ/(mole unit cells)
    Non-primitive unit cell  =           -8942.5494 kJ/(mole unit cells)
--------------------------------------------------------------------------------


  Number of variables =        2

  Maximum number of calculations  =          1000
  Maximum Hessian update interval =            10
  Maximum step size               =   1.000000000
  Maximum parameter tolerance     =   0.000010000
  Maximum function  tolerance     =   0.000010000
  Maximum gradient  tolerance     =   0.001000000
  Maximum gradient  component     =   0.010000000

  Symmetry constrained optimisation

  Symmetry used for second derivatives

  Cell parameters to be optimised using strains

  Newton-Raphson optimiser to be used

  BFGS hessian update to be used

  Start of bulk optimisation :

  Cycle:      0 Energy:       -30.894529  Gnorm:      7.459344  CPU:    0.023
  ** Hessian calculated **
  Cycle:      1 Energy:       -31.429625  Gnorm:      0.407680  CPU:    0.052
  Cycle:      2 Energy:       -31.431806  Gnorm:      0.000267  CPU:    0.080
  ** Hessian calculated **


  **** Optimisation achieved ****


  Final energy =     -31.43180574 eV
  Final Gnorm  =       0.00013665

  Components of energy : 

--------------------------------------------------------------------------------
  Interatomic potentials     =           3.71008027 eV
  Monopole - monopole (real) =          -8.93978246 eV
  Monopole - monopole (recip)=         -26.20210355 eV
  Monopole - monopole (total)=         -35.14188601 eV
--------------------------------------------------------------------------------
  Total lattice energy : 
    Primitive unit cell      =         -31.43180574 eV
    Non-primitive unit cell  =         -94.29541723 eV
--------------------------------------------------------------------------------
  Total lattice energy (in kJmol-1): 
    Primitive unit cell      =           -3032.6888 kJ/(mole unit cells)
    Non-primitive unit cell  =           -9098.0663 kJ/(mole unit cells)
--------------------------------------------------------------------------------

  Final asymmetric unit coordinates :

--------------------------------------------------------------------------------
   No.  Atomic        x           y           z         Radius
        Label       (Frac)      (Frac)      (Frac)       (Angs) 
--------------------------------------------------------------------------------
     1  Tb    c     0.000000    0.000000    0.000000    0.000000
     2  Ba    c     0.000000    0.000000    0.250000    0.000000
     3  O     c     0.462400    0.000000    0.250000    0.000000
     4  O     s     0.462400    0.000000    0.250000    0.000000
--------------------------------------------------------------------------------

  Final Cartesian lattice vectors (Angstroms) :

        3.206315    1.851167    5.283718
       -3.206315    1.851167    5.283718
        0.000000   -3.702334    5.283718


  Final cell parameters and derivatives :

--------------------------------------------------------------------------------
       a            6.451741 Angstrom     dE/de1(xx)    -0.000266 eV/strain
       b            6.451741 Angstrom     dE/de2(yy)     0.000000 eV/strain
       c            6.451741 Angstrom     dE/de3(zz)     0.000062 eV/strain
       alpha       59.599350 Degrees      dE/de4(yz)     0.000000 eV/strain
       beta        59.599350 Degrees      dE/de5(xz)     0.000000 eV/strain
       gamma       59.599350 Degrees      dE/de6(xy)     0.000000 eV/strain
--------------------------------------------------------------------------------

  Primitive cell volume =           188.166704 Angs**3

  Density of cell =      6.076168 g/cm**3

  Non-primitive lattice parameters :

  a    =     6.412631  b   =     6.412631  c    =    15.851155
  alpha=    90.000000  beta=    90.000000  gamma=   120.000000

  Non-primitive cell volume =           564.500111 Angs**3


  Final internal derivatives :

--------------------------------------------------------------------------------
   No.  Atomic          a             b             c           Radius
        Label          (eV)          (eV)          (eV)        (eV/Angs)
--------------------------------------------------------------------------------
      1 Tb    c       0.000000      0.000000      0.000000      0.000000
      2 Ba    c       0.000000      0.000000      0.000000      0.000000
      3 O     c       0.000000      0.000000      0.000000      0.000000
      4 O     s       0.000000      0.000000      0.000000      0.000000
--------------------------------------------------------------------------------
  Maximum abs         0.000000      0.000000      0.000000      0.000000
--------------------------------------------------------------------------------


  Born effective charge tensors : 

-------------------------------------------------------------------------------
  Atom             x           y             z
-------------------------------------------------------------------------------
   1 Tb    x       0.2105     -0.0138      0.0000
           y       0.0138      0.2105      0.0000
           z       0.0000      0.0000      0.2117
-------------------------------------------------------------------------------
   2 Ba    x       1.7985      0.0000      0.0000
           y       0.0000      1.7985      0.0000
           z       0.0000      0.0000      1.8067
-------------------------------------------------------------------------------
   3 O     x      -0.8049      0.0000      0.0000
           y       0.0000     -0.5344      0.1990
           z       0.0000      0.1986     -0.6728
-------------------------------------------------------------------------------




  Elastic Constant Matrix: (Units=GPa)

-------------------------------------------------------------------------------
  Indices      1         2         3         4         5         6    
-------------------------------------------------------------------------------
       1     38.7845   12.0916   25.5566  -19.6758    0.0000    0.0000
       2     12.0916   38.7845   25.5566   19.6758    0.0000    0.0000
       3     25.5566   25.5566   20.8410    0.0000    0.0000    0.0000
       4    -19.6758   19.6758    0.0000   26.0218    0.0000    0.0000
       5      0.0000    0.0000    0.0000    0.0000   26.0218  -19.6758
       6      0.0000    0.0000    0.0000    0.0000  -19.6758   13.3464
-------------------------------------------------------------------------------


  Elastic Compliance Matrix: (Units=1/GPa)

-------------------------------------------------------------------------------
  Indices      1         2         3         4         5         6    
-------------------------------------------------------------------------------
       1   -0.205662  0.120932  0.103901 -0.246946  0.000000  0.000000
       2    0.120932 -0.205662  0.103901  0.246946  0.000000  0.000000
       3    0.103901  0.103901 -0.206838  0.000000  0.000000  0.000000
       4   -0.246946  0.246946  0.000000 -0.335016  0.000000  0.000000
       5    0.000000  0.000000  0.000000  0.000000 -0.335016 -0.493893
       6    0.000000  0.000000  0.000000  0.000000 -0.493893 -0.653187
-------------------------------------------------------------------------------

  Mechanical properties :

-------------------------------------------------------------------------------
  Convention :                    Reuss         Voigt         Hill
-------------------------------------------------------------------------------
  Bulk  Modulus (GPa)     =      25.44097      24.97996      25.21046
  Shear Modulus (GPa)     =      -1.93368      15.42500       6.74566
-------------------------------------------------------------------------------
  Velocity S-wave (km/s)  =      -0.56413       1.59330       1.05365
  Velocity P-wave (km/s)  =       1.93977       2.73787       2.37262
-------------------------------------------------------------------------------
  Compressibility (1/GPa) =    0.03930668
-------------------------------------------------------------------------------
  Stress axis :                     x             y             z
-------------------------------------------------------------------------------
  Youngs Moduli (GPa)     =      -4.86236      -4.86236      -4.83471
-------------------------------------------------------------------------------
  Poissons Ratio (x)      =                     0.58802       0.50233
  Poissons Ratio (y)      =       0.58802                     0.50233
  Poissons Ratio (z)      =       0.50520       0.50520
-------------------------------------------------------------------------------


  Piezoelectric Strain Matrix: (Units=C/m**2)

-------------------------------------------------------------------------------
  Indices      1         2         3         4         5         6    
-------------------------------------------------------------------------------
       x     0.00000   0.00000   0.00000   0.00000   0.00000   0.00000
       y     0.00000   0.00000   0.00000   0.00000   0.00000   0.00000
       z     0.00000   0.00000   0.00000   0.00000   0.00000   0.00000
-------------------------------------------------------------------------------


  Piezoelectric Stress Matrix: (Units=10**-11 C/N)

-------------------------------------------------------------------------------
  Indices      1         2         3         4         5         6    
-------------------------------------------------------------------------------
       x     0.00000   0.00000   0.00000   0.00000   0.00000   0.00000
       y     0.00000   0.00000   0.00000   0.00000   0.00000   0.00000
       z     0.00000   0.00000   0.00000   0.00000   0.00000   0.00000
-------------------------------------------------------------------------------


  Static dielectric constant tensor : 

-------------------------------------------------------------------------------
              x         y         z
-------------------------------------------------------------------------------
       x    -2.64901   0.00000   0.00000
       y     0.00000  -2.64901   0.00000
       z     0.00000   0.00000  -1.96932
--------------------------------------------------------------------------------

  High frequency dielectric constant tensor : 

-------------------------------------------------------------------------------
              x         y         z
-------------------------------------------------------------------------------
       x     1.45990   0.00000   0.00000
       y     0.00000   1.45990   0.00000
       z     0.00000   0.00000   1.46140
-------------------------------------------------------------------------------

  Static refractive indices : 

-------------------------------------------------------------------------------
    1 =   -1.62758      2 =   -1.62758      3 =   -1.40332
-------------------------------------------------------------------------------

  High frequency refractive indices : 

-------------------------------------------------------------------------------
    1 =    1.20826      2 =    1.20826      3 =    1.20888
-------------------------------------------------------------------------------


  Time to end of optimisation =       0.1555 seconds


  Peak dynamic memory used =       0.82 MB 


  Timing analysis for GULP :

--------------------------------------------------------------------------------
  Task / Subroutine                                          Time (Seconds)
--------------------------------------------------------------------------------
  Calculation of reciprocal space energy and derivatives          0.0009
  Calculation of reciprocal space energy using symmetry           0.0015
  Calculation of real space energy and derivatives                0.0388
  Calculation of real space energy using symmetry                 0.1109
  Symmetry generation of equivalent positions                     0.0003
--------------------------------------------------------------------------------
  Total CPU time                                                  0.1556
--------------------------------------------------------------------------------


  CIF file written as perov.cif                                               


  Job Finished at 09:31.27  6th April      2017                               

