********************************************************************************
*                       GENERAL UTILITY LATTICE PROGRAM                        *
*                                 Julian Gale                                  *
*                      Nanochemistry Research Institute                        *
*                           Department of Chemistry                            *
*                    Curtin University, Western Australia                      *
********************************************************************************
* Version = 4.3.2 * Last modified =  3rd March 2015                            *
********************************************************************************
*  optimise     - perform optimisation run                                     *
*  conp         - constant pressure calculation                                *
*  property     - calculate properties for final geometry                      *
********************************************************************************

  Job Started  at 14:01.03 22nd February   2017                               

  Number of CPUs =     1


  Total number of configurations input =   1

********************************************************************************
*  Input for Configuration =   1                                               *
********************************************************************************

  Formula = KZnF3                                                       

  Number of irreducible atoms/shells =       8


  Total number atoms/shells =       8

  Dimensionality = 3               :  Bulk   



  Cartesian lattice vectors (Angstroms) :

        4.200000    0.000000    0.000000
        0.000000    4.200000    0.000000
        0.000000    0.000000    4.200000

  Cell parameters (Angstroms/Degrees):

  a =       4.2000    alpha =  90.0000
  b =       4.2000    beta  =  90.0000
  c =       4.2000    gamma =  90.0000

  Initial cell volume =          74.088000 Angs**3

  Temperature of configuration =  0.000     K 

  Pressure of configuration =         0.000 GPa 

  Fractional coordinates of asymmetric unit :

--------------------------------------------------------------------------------
   No.  Atomic       x           y          z         Charge      Occupancy
        Label      (Frac)      (Frac)     (Frac)        (e)         (Frac)  
--------------------------------------------------------------------------------
      1 K     c    0.000000    0.000000    0.000000     1.10000    1.000000    
      2 Zn    c    0.500000 *  0.500000 *  0.500000 *   2.50000    1.000000    
      3 F     c    0.500000 *  0.500000 *  0.000000 *   0.37800    1.000000    
      4 F     c    0.000000 *  0.500000 *  0.500000 *   0.37800    1.000000    
      5 F     c    0.500000 *  0.000000 *  0.500000 *   0.37800    1.000000    
      6 F     s    0.500000 *  0.500000 *  0.000000 *  -1.57800    1.000000    
      7 F     s    0.000000 *  0.500000 *  0.500000 *  -1.57800    1.000000    
      8 F     s    0.500000 *  0.000000 *  0.500000 *  -1.57800    1.000000    
--------------------------------------------------------------------------------



********************************************************************************
*  General input information                                                   *
********************************************************************************

  Species output for all configurations : 

--------------------------------------------------------------------------------
  Species    Type    Atomic    Atomic    Charge       Radii (Angs)     Library
                     Number     Mass       (e)     Cova   Ionic  VDW   Symbol
--------------------------------------------------------------------------------
    K        Core       19      39.10   1.100000   1.330  0.000  2.800          
    Zn       Core       30      65.39   2.500000   1.450  0.000  2.160          
    F        Core        9      19.00   0.378000   0.710  0.000  1.300          
    F        Shell       9       0.00  -1.578000   0.710  0.000  1.300          
--------------------------------------------------------------------------------


  Lattice summation method               =    Ewald          (3-D)
                                         =    Parry          (2-D)
                                         =    Saunders et al (1-D)
  Accuracy factor for lattice sums       =   12.000


  Time limit = Infinity

  Maximum range for interatomic potentials =    100000.000000 Angstroms

  General interatomic potentials :

--------------------------------------------------------------------------------
Atom  Types   Potential         A         B         C         D     Cutoffs(Ang)
  1     2                                                            Min    Max 
--------------------------------------------------------------------------------
K    c K    c Buckingham    0.219E+04 0.192      0.00      0.00     0.000 10.000
Zn   c F    s Buckingham    0.148E+04 0.266      0.00      0.00     0.000 10.000
F    s F    s Buckingham     912.     0.271      60.0      0.00     0.000 10.000
K    c F    s Buckingham    0.352E+04 0.267      0.00      0.00     0.000 10.000
F    c F    s Spring (c-s)   31.9      0.00      0.00      0.00     0.000  0.800
--------------------------------------------------------------------------------

********************************************************************************
*  Output for configuration   1                                                *
********************************************************************************


  Components of energy : 

--------------------------------------------------------------------------------
  Interatomic potentials     =           2.87991129 eV
  Monopole - monopole (real) =         -15.53441498 eV
  Monopole - monopole (recip)=         -47.08164214 eV
  Monopole - monopole (total)=         -62.61605712 eV
--------------------------------------------------------------------------------
  Total lattice energy       =         -59.73614584 eV
--------------------------------------------------------------------------------
  Total lattice energy       =           -5763.6249 kJ/(mole unit cells)
--------------------------------------------------------------------------------


  Number of variables =       27

  Maximum number of calculations  =          1000
  Maximum Hessian update interval =            10
  Maximum step size               =   1.000000000
  Maximum parameter tolerance     =   0.000010000
  Maximum function  tolerance     =   0.000010000
  Maximum gradient  tolerance     =   0.001000000
  Maximum gradient  component     =   0.010000000

  Symmetry not applied to optimisation

  Cell parameters to be optimised using strains

  Newton-Raphson optimiser to be used

  BFGS hessian update to be used

  Start of bulk optimisation :

  Cycle:      0 Energy:       -59.736146  Gnorm:      0.744933  CPU:    0.003
  ** Hessian calculated **
  Cycle:      1 Energy:       -62.170817  Gnorm:      0.120245  CPU:    0.005
  Cycle:      2 Energy:       -62.192110  Gnorm:      0.084858  CPU:    0.006
  Cycle:      3 Energy:       -62.209473  Gnorm:      0.000010  CPU:    0.008


  **** Optimisation achieved ****


  Final energy =     -62.20947325 eV
  Final Gnorm  =       0.00000000

  Components of energy : 

--------------------------------------------------------------------------------
  Interatomic potentials     =           8.55559176 eV
  Monopole - monopole (real) =         -17.55610201 eV
  Monopole - monopole (recip)=         -53.20896301 eV
  Monopole - monopole (total)=         -70.76506501 eV
--------------------------------------------------------------------------------
  Total lattice energy       =         -62.20947325 eV
--------------------------------------------------------------------------------
  Total lattice energy       =           -6002.2632 kJ/(mole unit cells)
--------------------------------------------------------------------------------

  Final fractional coordinates of atoms :

--------------------------------------------------------------------------------
   No.  Atomic        x           y          z          Radius
        Label       (Frac)      (Frac)     (Frac)       (Angs) 
--------------------------------------------------------------------------------
     1  K     c     0.000000    0.000000    0.000000    0.000000
     2  Zn    c     0.500000    0.500000    0.500000    0.000000
     3  F     c     0.500000    0.500000    0.000000    0.000000
     4  F     c     0.000000    0.500000    0.500000    0.000000
     5  F     c     0.500000    1.000000    0.500000    0.000000
     6  F     s     0.500000    0.500000    0.000000    0.000000
     7  F     s     0.000000    0.500000    0.500000    0.000000
     8  F     s     0.500000    0.000000    0.500000    0.000000
--------------------------------------------------------------------------------

  Final Cartesian lattice vectors (Angstroms) :

        3.716346    0.000000    0.000000
        0.000000    3.716346    0.000000
        0.000000    0.000000    3.716346


  Final cell parameters and derivatives :

--------------------------------------------------------------------------------
       a            3.716346 Angstrom     dE/de1(xx)     0.000000 eV/strain
       b            3.716346 Angstrom     dE/de2(yy)     0.000000 eV/strain
       c            3.716346 Angstrom     dE/de3(zz)     0.000000 eV/strain
       alpha       90.000000 Degrees      dE/de4(yz)     0.000000 eV/strain
       beta        90.000000 Degrees      dE/de5(xz)     0.000000 eV/strain
       gamma       90.000000 Degrees      dE/de6(xy)     0.000000 eV/strain
--------------------------------------------------------------------------------

  Primitive cell volume =            51.327285 Angs**3

  Density of cell =      5.224604 g/cm**3

  Non-primitive cell volume =            51.327285 Angs**3


  Final internal derivatives :

--------------------------------------------------------------------------------
   No.  Atomic          a             b             c           Radius
        Label          (eV)          (eV)          (eV)        (eV/Angs)
--------------------------------------------------------------------------------
      1 K     c       0.000000      0.000000      0.000000      0.000000
      2 Zn    c       0.000000      0.000000      0.000000      0.000000
      3 F     c       0.000000      0.000000      0.000000      0.000000
      4 F     c       0.000000      0.000000      0.000000      0.000000
      5 F     c       0.000000      0.000000      0.000000      0.000000
      6 F     s       0.000000      0.000000      0.000000      0.000000
      7 F     s       0.000000      0.000000      0.000000      0.000000
      8 F     s       0.000000      0.000000      0.000000      0.000000
--------------------------------------------------------------------------------
  Maximum abs         0.000000      0.000000      0.000000      0.000000
--------------------------------------------------------------------------------


  Born effective charge tensors : 

-------------------------------------------------------------------------------
  Atom             x           y             z
-------------------------------------------------------------------------------
   1 K     x       0.9936      0.0000      0.0000
           y       0.0000      0.9936      0.0000
           z       0.0000      0.0000      0.9936
-------------------------------------------------------------------------------
   2 Zn    x       1.8932      0.0000      0.0000
           y       0.0000      1.8932      0.0000
           z       0.0000      0.0000      1.8932
-------------------------------------------------------------------------------
   3 F     x      -0.9240      0.0000      0.0000
           y       0.0000     -0.9240      0.0000
           z       0.0000      0.0000     -1.0388
-------------------------------------------------------------------------------
   4 F     x      -1.0388      0.0000      0.0000
           y       0.0000     -0.9240      0.0000
           z       0.0000      0.0000     -0.9240
-------------------------------------------------------------------------------
   5 F     x      -0.9240      0.0000      0.0000
           y       0.0000     -1.0388      0.0000
           z       0.0000      0.0000     -0.9240
-------------------------------------------------------------------------------




  Elastic Constant Matrix: (Units=GPa)

-------------------------------------------------------------------------------
  Indices      1         2         3         4         5         6    
-------------------------------------------------------------------------------
       1    276.8289   88.1039   88.1039    0.0000    0.0000    0.0000
       2     88.1039  276.8289   88.1039    0.0000    0.0000    0.0000
       3     88.1039   88.1039  276.8289    0.0000    0.0000    0.0000
       4      0.0000    0.0000    0.0000   88.1039    0.0000    0.0000
       5      0.0000    0.0000    0.0000    0.0000   88.1039    0.0000
       6      0.0000    0.0000    0.0000    0.0000    0.0000   88.1039
-------------------------------------------------------------------------------


  Elastic Compliance Matrix: (Units=1/GPa)

-------------------------------------------------------------------------------
  Indices      1         2         3         4         5         6    
-------------------------------------------------------------------------------
       1    0.004268 -0.001030 -0.001030  0.000000  0.000000  0.000000
       2   -0.001030  0.004268 -0.001030  0.000000  0.000000  0.000000
       3   -0.001030 -0.001030  0.004268  0.000000  0.000000  0.000000
       4    0.000000  0.000000  0.000000  0.011350  0.000000  0.000000
       5    0.000000  0.000000  0.000000  0.000000  0.011350  0.000000
       6    0.000000  0.000000  0.000000  0.000000  0.000000  0.011350
-------------------------------------------------------------------------------

  Mechanical properties :

-------------------------------------------------------------------------------
  Convention :                    Reuss         Voigt         Hill
-------------------------------------------------------------------------------
  Bulk  Modulus (GPa)     =     151.01223     151.01223     151.01223
  Shear Modulus (GPa)     =      90.50500      90.60734      90.55617
-------------------------------------------------------------------------------
  Velocity S-wave (km/s)  =       4.16207       4.16442       4.16325
  Velocity P-wave (km/s)  =       7.21118       7.21300       7.21209
-------------------------------------------------------------------------------
  Compressibility (1/GPa) =    0.00662198
-------------------------------------------------------------------------------
  Stress axis :                     x             y             z
-------------------------------------------------------------------------------
  Youngs Moduli (GPa)     =     234.28797     234.28797     234.28797
-------------------------------------------------------------------------------
  Poissons Ratio (x)      =                     0.24142       0.24142
  Poissons Ratio (y)      =       0.24142                     0.24142
  Poissons Ratio (z)      =       0.24142       0.24142
-------------------------------------------------------------------------------


  Piezoelectric Strain Matrix: (Units=C/m**2)

-------------------------------------------------------------------------------
  Indices      1         2         3         4         5         6    
-------------------------------------------------------------------------------
       x     0.00000   0.00000   0.00000   0.00000   0.00000   0.00000
       y     0.00000   0.00000   0.00000   0.00000   0.00000   0.00000
       z     0.00000   0.00000   0.00000   0.00000   0.00000   0.00000
-------------------------------------------------------------------------------


  Piezoelectric Stress Matrix: (Units=10**-11 C/N)

-------------------------------------------------------------------------------
  Indices      1         2         3         4         5         6    
-------------------------------------------------------------------------------
       x     0.00000   0.00000   0.00000   0.00000   0.00000   0.00000
       y     0.00000   0.00000   0.00000   0.00000   0.00000   0.00000
       z     0.00000   0.00000   0.00000   0.00000   0.00000   0.00000
-------------------------------------------------------------------------------


  Static dielectric constant tensor : 

-------------------------------------------------------------------------------
              x         y         z
-------------------------------------------------------------------------------
       x     3.65712   0.00000   0.00000
       y     0.00000   3.65712   0.00000
       z     0.00000   0.00000   3.65712
--------------------------------------------------------------------------------

  High frequency dielectric constant tensor : 

-------------------------------------------------------------------------------
              x         y         z
-------------------------------------------------------------------------------
       x     1.75181   0.00000   0.00000
       y     0.00000   1.75181   0.00000
       z     0.00000   0.00000   1.75181
-------------------------------------------------------------------------------

  Static refractive indices : 

-------------------------------------------------------------------------------
    1 =    1.91236      2 =    1.91236      3 =    1.91236
-------------------------------------------------------------------------------

  High frequency refractive indices : 

-------------------------------------------------------------------------------
    1 =    1.32356      2 =    1.32356      3 =    1.32356
-------------------------------------------------------------------------------


  Time to end of optimisation =       0.0117 seconds


  Peak dynamic memory used =       0.50 MB 


  Timing analysis for GULP :

--------------------------------------------------------------------------------
  Task / Subroutine                                          Time (Seconds)
--------------------------------------------------------------------------------
  Calculation of reciprocal space energy and derivatives          0.0011
  Calculation of real space energy and derivatives                0.0076
--------------------------------------------------------------------------------
  Total CPU time                                                  0.0117
--------------------------------------------------------------------------------


  CIF file written as perov.cif                                               


  Job Finished at 14:01.03 22nd February   2017                               

