********************************************************************************
*                       GENERAL UTILITY LATTICE PROGRAM                        *
*                                 Julian Gale                                  *
*                      Nanochemistry Research Institute                        *
*                           Department of Chemistry                            *
*                    Curtin University, Western Australia                      *
********************************************************************************
* Version = 4.3.2 * Last modified =  3rd March 2015                            *
********************************************************************************
*  optimise     - perform optimisation run                                     *
*  conp         - constant pressure calculation                                *
*  property     - calculate properties for final geometry                      *
********************************************************************************

  Job Started  at 14:01.04 22nd February   2017                               

  Number of CPUs =     1


  Total number of configurations input =   1

********************************************************************************
*  Input for Configuration =   1                                               *
********************************************************************************

  Formula = KZnF3                                                       

  Number of irreducible atoms/shells =       8


  Total number atoms/shells =       8

  Dimensionality = 3               :  Bulk   



  Cartesian lattice vectors (Angstroms) :

        4.200000    0.000000    0.000000
        0.000000    4.200000    0.000000
        0.000000    0.000000    4.200000

  Cell parameters (Angstroms/Degrees):

  a =       4.2000    alpha =  90.0000
  b =       4.2000    beta  =  90.0000
  c =       4.2000    gamma =  90.0000

  Initial cell volume =          74.088000 Angs**3

  Temperature of configuration =  0.000     K 

  Pressure of configuration =         0.000 GPa 

  Fractional coordinates of asymmetric unit :

--------------------------------------------------------------------------------
   No.  Atomic       x           y          z         Charge      Occupancy
        Label      (Frac)      (Frac)     (Frac)        (e)         (Frac)  
--------------------------------------------------------------------------------
      1 K     c    0.000000    0.000000    0.000000     1.50000    1.000000    
      2 Zn    c    0.500000 *  0.500000 *  0.500000 *   1.60000    1.000000    
      3 F     c    0.500000 *  0.500000 *  0.000000 *   0.37800    1.000000    
      4 F     c    0.000000 *  0.500000 *  0.500000 *   0.37800    1.000000    
      5 F     c    0.500000 *  0.000000 *  0.500000 *   0.37800    1.000000    
      6 F     s    0.500000 *  0.500000 *  0.000000 *  -1.41133    1.000000    
      7 F     s    0.000000 *  0.500000 *  0.500000 *  -1.41133    1.000000    
      8 F     s    0.500000 *  0.000000 *  0.500000 *  -1.41133    1.000000    
--------------------------------------------------------------------------------



********************************************************************************
*  General input information                                                   *
********************************************************************************

  Species output for all configurations : 

--------------------------------------------------------------------------------
  Species    Type    Atomic    Atomic    Charge       Radii (Angs)     Library
                     Number     Mass       (e)     Cova   Ionic  VDW   Symbol
--------------------------------------------------------------------------------
    K        Core       19      39.10   1.500000   1.330  0.000  2.800          
    Zn       Core       30      65.39   1.600000   1.450  0.000  2.160          
    F        Core        9      19.00   0.378000   0.710  0.000  1.300          
    F        Shell       9       0.00  -1.411333   0.710  0.000  1.300          
--------------------------------------------------------------------------------


  Lattice summation method               =    Ewald          (3-D)
                                         =    Parry          (2-D)
                                         =    Saunders et al (1-D)
  Accuracy factor for lattice sums       =   12.000


  Time limit = Infinity

  Maximum range for interatomic potentials =    100000.000000 Angstroms

  General interatomic potentials :

--------------------------------------------------------------------------------
Atom  Types   Potential         A         B         C         D     Cutoffs(Ang)
  1     2                                                            Min    Max 
--------------------------------------------------------------------------------
K    c K    c Buckingham    0.219E+04 0.192      0.00      0.00     0.000 10.000
Zn   c F    s Buckingham    0.148E+04 0.266      0.00      0.00     0.000 10.000
F    s F    s Buckingham     912.     0.271      60.0      0.00     0.000 10.000
K    c F    s Buckingham    0.352E+04 0.267      0.00      0.00     0.000 10.000
F    c F    s Spring (c-s)   25.5      0.00      0.00      0.00     0.000  0.800
--------------------------------------------------------------------------------

********************************************************************************
*  Output for configuration   1                                                *
********************************************************************************


  Components of energy : 

--------------------------------------------------------------------------------
  Interatomic potentials     =           2.87991129 eV
  Monopole - monopole (real) =          -9.36799539 eV
  Monopole - monopole (recip)=         -31.68575986 eV
  Monopole - monopole (total)=         -41.05375525 eV
--------------------------------------------------------------------------------
  Total lattice energy       =         -38.17384396 eV
--------------------------------------------------------------------------------
  Total lattice energy       =           -3683.1924 kJ/(mole unit cells)
--------------------------------------------------------------------------------


  Number of variables =       27

  Maximum number of calculations  =          1000
  Maximum Hessian update interval =            10
  Maximum step size               =   1.000000000
  Maximum parameter tolerance     =   0.000010000
  Maximum function  tolerance     =   0.000010000
  Maximum gradient  tolerance     =   0.001000000
  Maximum gradient  component     =   0.010000000

  Symmetry not applied to optimisation

  Cell parameters to be optimised using strains

  Newton-Raphson optimiser to be used

  BFGS hessian update to be used

  Start of bulk optimisation :

  Cycle:      0 Energy:       -38.173844  Gnorm:      0.283859  CPU:    0.003
  ** Hessian calculated **
  Cycle:      1 Energy:       -38.560810  Gnorm:      0.069343  CPU:    0.005
  Cycle:      2 Energy:       -38.576859  Gnorm:      0.017239  CPU:    0.006
  Cycle:      3 Energy:       -38.577994  Gnorm:      0.000004  CPU:    0.008


  **** Optimisation achieved ****


  Final energy =     -38.57799426 eV
  Final Gnorm  =       0.00000004

  Components of energy : 

--------------------------------------------------------------------------------
  Interatomic potentials     =           4.85875922 eV
  Monopole - monopole (real) =          -9.91176822 eV
  Monopole - monopole (recip)=         -33.52498527 eV
  Monopole - monopole (total)=         -43.43675349 eV
--------------------------------------------------------------------------------
  Total lattice energy       =         -38.57799426 eV
--------------------------------------------------------------------------------
  Total lattice energy       =           -3722.1867 kJ/(mole unit cells)
--------------------------------------------------------------------------------

  Final fractional coordinates of atoms :

--------------------------------------------------------------------------------
   No.  Atomic        x           y          z          Radius
        Label       (Frac)      (Frac)     (Frac)       (Angs) 
--------------------------------------------------------------------------------
     1  K     c     0.000000    0.000000    0.000000    0.000000
     2  Zn    c     0.500000    0.500000    0.500000    0.000000
     3  F     c     0.500000    0.500000    0.000000    0.000000
     4  F     c     0.000000    0.500000    0.500000    0.000000
     5  F     c     0.500000    0.000000    0.500000    0.000000
     6  F     s     0.500000    0.500000    0.000000    0.000000
     7  F     s     0.000000    0.500000    0.500000    0.000000
     8  F     s     0.500000    0.000000    0.500000    0.000000
--------------------------------------------------------------------------------

  Final Cartesian lattice vectors (Angstroms) :

        3.969582    0.000000    0.000000
        0.000000    3.969582    0.000000
        0.000000    0.000000    3.969582


  Final cell parameters and derivatives :

--------------------------------------------------------------------------------
       a            3.969582 Angstrom     dE/de1(xx)    -0.000001 eV/strain
       b            3.969582 Angstrom     dE/de2(yy)    -0.000001 eV/strain
       c            3.969582 Angstrom     dE/de3(zz)    -0.000001 eV/strain
       alpha       90.000000 Degrees      dE/de4(yz)     0.000000 eV/strain
       beta        90.000000 Degrees      dE/de5(xz)     0.000000 eV/strain
       gamma       90.000000 Degrees      dE/de6(xy)     0.000000 eV/strain
--------------------------------------------------------------------------------

  Primitive cell volume =            62.551030 Angs**3

  Density of cell =      4.287135 g/cm**3

  Non-primitive cell volume =            62.551030 Angs**3


  Final internal derivatives :

--------------------------------------------------------------------------------
   No.  Atomic          a             b             c           Radius
        Label          (eV)          (eV)          (eV)        (eV/Angs)
--------------------------------------------------------------------------------
      1 K     c       0.000000      0.000000      0.000000      0.000000
      2 Zn    c       0.000000      0.000000      0.000000      0.000000
      3 F     c       0.000000      0.000000      0.000000      0.000000
      4 F     c       0.000000      0.000000      0.000000      0.000000
      5 F     c       0.000000      0.000000      0.000000      0.000000
      6 F     s       0.000000      0.000000      0.000000      0.000000
      7 F     s       0.000000      0.000000      0.000000      0.000000
      8 F     s       0.000000      0.000000      0.000000      0.000000
--------------------------------------------------------------------------------
  Maximum abs         0.000000      0.000000      0.000000      0.000000
--------------------------------------------------------------------------------


  Born effective charge tensors : 

-------------------------------------------------------------------------------
  Atom             x           y             z
-------------------------------------------------------------------------------
   1 K     x       1.6087      0.0000      0.0000
           y       0.0000      1.6087      0.0000
           z       0.0000      0.0000      1.6087
-------------------------------------------------------------------------------
   2 Zn    x       1.0329      0.0000      0.0000
           y       0.0000      1.0329      0.0000
           z       0.0000      0.0000      1.0329
-------------------------------------------------------------------------------
   3 F     x      -0.9771      0.0000      0.0000
           y       0.0000     -0.9771      0.0000
           z       0.0000      0.0000     -0.6874
-------------------------------------------------------------------------------
   4 F     x      -0.6874      0.0000      0.0000
           y       0.0000     -0.9771      0.0000
           z       0.0000      0.0000     -0.9771
-------------------------------------------------------------------------------
   5 F     x      -0.9771      0.0000      0.0000
           y       0.0000     -0.6874      0.0000
           z       0.0000      0.0000     -0.9771
-------------------------------------------------------------------------------




  Elastic Constant Matrix: (Units=GPa)

-------------------------------------------------------------------------------
  Indices      1         2         3         4         5         6    
-------------------------------------------------------------------------------
       1    184.4415   31.6599   31.6599    0.0000    0.0000    0.0000
       2     31.6599  184.4415   31.6599    0.0000    0.0000    0.0000
       3     31.6599   31.6599  184.4415    0.0000    0.0000    0.0000
       4      0.0000    0.0000    0.0000   31.6599    0.0000    0.0000
       5      0.0000    0.0000    0.0000    0.0000   31.6599    0.0000
       6      0.0000    0.0000    0.0000    0.0000    0.0000   31.6599
-------------------------------------------------------------------------------


  Elastic Compliance Matrix: (Units=1/GPa)

-------------------------------------------------------------------------------
  Indices      1         2         3         4         5         6    
-------------------------------------------------------------------------------
       1    0.005709 -0.000836 -0.000836  0.000000  0.000000  0.000000
       2   -0.000836  0.005709 -0.000836  0.000000  0.000000  0.000000
       3   -0.000836 -0.000836  0.005709  0.000000  0.000000  0.000000
       4    0.000000  0.000000  0.000000  0.031586  0.000000  0.000000
       5    0.000000  0.000000  0.000000  0.000000  0.031586  0.000000
       6    0.000000  0.000000  0.000000  0.000000  0.000000  0.031586
-------------------------------------------------------------------------------

  Mechanical properties :

-------------------------------------------------------------------------------
  Convention :                    Reuss         Voigt         Hill
-------------------------------------------------------------------------------
  Bulk  Modulus (GPa)     =      82.58707      82.58707      82.58707
  Shear Modulus (GPa)     =      41.34338      49.55224      45.44781
-------------------------------------------------------------------------------
  Velocity S-wave (km/s)  =       3.10541       3.39976       3.25591
  Velocity P-wave (km/s)  =       5.66763       5.88855       5.77915
-------------------------------------------------------------------------------
  Compressibility (1/GPa) =    0.01210843
-------------------------------------------------------------------------------
  Stress axis :                     x             y             z
-------------------------------------------------------------------------------
  Youngs Moduli (GPa)     =     175.16482     175.16482     175.16482
-------------------------------------------------------------------------------
  Poissons Ratio (x)      =                     0.14650       0.14650
  Poissons Ratio (y)      =       0.14650                     0.14650
  Poissons Ratio (z)      =       0.14650       0.14650
-------------------------------------------------------------------------------


  Piezoelectric Strain Matrix: (Units=C/m**2)

-------------------------------------------------------------------------------
  Indices      1         2         3         4         5         6    
-------------------------------------------------------------------------------
       x     0.00000   0.00000   0.00000   0.00000   0.00000   0.00000
       y     0.00000   0.00000   0.00000   0.00000   0.00000   0.00000
       z     0.00000   0.00000   0.00000   0.00000   0.00000   0.00000
-------------------------------------------------------------------------------


  Piezoelectric Stress Matrix: (Units=10**-11 C/N)

-------------------------------------------------------------------------------
  Indices      1         2         3         4         5         6    
-------------------------------------------------------------------------------
       x     0.00000   0.00000   0.00000   0.00000   0.00000   0.00000
       y     0.00000   0.00000   0.00000   0.00000   0.00000   0.00000
       z     0.00000   0.00000   0.00000   0.00000   0.00000   0.00000
-------------------------------------------------------------------------------


  Static dielectric constant tensor : 

-------------------------------------------------------------------------------
              x         y         z
-------------------------------------------------------------------------------
       x    13.41607   0.00000   0.00000
       y     0.00000  13.41607   0.00000
       z     0.00000   0.00000  13.41607
--------------------------------------------------------------------------------

  High frequency dielectric constant tensor : 

-------------------------------------------------------------------------------
              x         y         z
-------------------------------------------------------------------------------
       x     1.64106   0.00000   0.00000
       y     0.00000   1.64106   0.00000
       z     0.00000   0.00000   1.64106
-------------------------------------------------------------------------------

  Static refractive indices : 

-------------------------------------------------------------------------------
    1 =    3.66280      2 =    3.66280      3 =    3.66280
-------------------------------------------------------------------------------

  High frequency refractive indices : 

-------------------------------------------------------------------------------
    1 =    1.28104      2 =    1.28104      3 =    1.28104
-------------------------------------------------------------------------------


  Time to end of optimisation =       0.0124 seconds


  Peak dynamic memory used =       0.50 MB 


  Timing analysis for GULP :

--------------------------------------------------------------------------------
  Task / Subroutine                                          Time (Seconds)
--------------------------------------------------------------------------------
  Calculation of reciprocal space energy and derivatives          0.0012
  Calculation of real space energy and derivatives                0.0080
--------------------------------------------------------------------------------
  Total CPU time                                                  0.0124
--------------------------------------------------------------------------------


  CIF file written as perov.cif                                               


  Job Finished at 14:01.04 22nd February   2017                               

