********************************************************************************
*                       GENERAL UTILITY LATTICE PROGRAM                        *
*                                 Julian Gale                                  *
*                      Nanochemistry Research Institute                        *
*                           Department of Chemistry                            *
*                    Curtin University, Western Australia                      *
********************************************************************************
* Version = 4.3.2 * Last modified =  3rd March 2015                            *
********************************************************************************
*  optimise     - perform optimisation run                                     *
*  conp         - constant pressure calculation                                *
*  property     - calculate properties for final geometry                      *
********************************************************************************

  Job Started  at 14:01.02 22nd February   2017                               

  Number of CPUs =     1


  Total number of configurations input =   1

********************************************************************************
*  Input for Configuration =   1                                               *
********************************************************************************

  Formula = KZnF3                                                       

  Number of irreducible atoms/shells =       8


  Total number atoms/shells =       8

  Dimensionality = 3               :  Bulk   



  Cartesian lattice vectors (Angstroms) :

        4.200000    0.000000    0.000000
        0.000000    4.200000    0.000000
        0.000000    0.000000    4.200000

  Cell parameters (Angstroms/Degrees):

  a =       4.2000    alpha =  90.0000
  b =       4.2000    beta  =  90.0000
  c =       4.2000    gamma =  90.0000

  Initial cell volume =          74.088000 Angs**3

  Temperature of configuration =  0.000     K 

  Pressure of configuration =         0.000 GPa 

  Fractional coordinates of asymmetric unit :

--------------------------------------------------------------------------------
   No.  Atomic       x           y          z         Charge      Occupancy
        Label      (Frac)      (Frac)     (Frac)        (e)         (Frac)  
--------------------------------------------------------------------------------
      1 K     c    0.000000    0.000000    0.000000     0.50000    1.000000    
      2 Zn    c    0.500000 *  0.500000 *  0.500000 *   1.90000    1.000000    
      3 F     c    0.500000 *  0.500000 *  0.000000 *   0.37800    1.000000    
      4 F     c    0.000000 *  0.500000 *  0.500000 *   0.37800    1.000000    
      5 F     c    0.500000 *  0.000000 *  0.500000 *   0.37800    1.000000    
      6 F     s    0.500000 *  0.500000 *  0.000000 *  -1.17800    1.000000    
      7 F     s    0.000000 *  0.500000 *  0.500000 *  -1.17800    1.000000    
      8 F     s    0.500000 *  0.000000 *  0.500000 *  -1.17800    1.000000    
--------------------------------------------------------------------------------



********************************************************************************
*  General input information                                                   *
********************************************************************************

  Species output for all configurations : 

--------------------------------------------------------------------------------
  Species    Type    Atomic    Atomic    Charge       Radii (Angs)     Library
                     Number     Mass       (e)     Cova   Ionic  VDW   Symbol
--------------------------------------------------------------------------------
    K        Core       19      39.10   0.500000   1.330  0.000  2.800          
    Zn       Core       30      65.39   1.900000   1.450  0.000  2.160          
    F        Core        9      19.00   0.378000   0.710  0.000  1.300          
    F        Shell       9       0.00  -1.178000   0.710  0.000  1.300          
--------------------------------------------------------------------------------


  Lattice summation method               =    Ewald          (3-D)
                                         =    Parry          (2-D)
                                         =    Saunders et al (1-D)
  Accuracy factor for lattice sums       =   12.000


  Time limit = Infinity

  Maximum range for interatomic potentials =    100000.000000 Angstroms

  General interatomic potentials :

--------------------------------------------------------------------------------
Atom  Types   Potential         A         B         C         D     Cutoffs(Ang)
  1     2                                                            Min    Max 
--------------------------------------------------------------------------------
K    c K    c Buckingham    0.219E+04 0.192      0.00      0.00     0.000 10.000
Zn   c F    s Buckingham    0.148E+04 0.266      0.00      0.00     0.000 10.000
F    s F    s Buckingham     912.     0.271      60.0      0.00     0.000 10.000
K    c F    s Buckingham    0.352E+04 0.267      0.00      0.00     0.000 10.000
F    c F    s Spring (c-s)   17.8      0.00      0.00      0.00     0.000  0.800
--------------------------------------------------------------------------------

********************************************************************************
*  Output for configuration   1                                                *
********************************************************************************


  Components of energy : 

--------------------------------------------------------------------------------
  Interatomic potentials     =           2.87991129 eV
  Monopole - monopole (real) =          -7.64594915 eV
  Monopole - monopole (recip)=         -23.01728408 eV
  Monopole - monopole (total)=         -30.66323323 eV
--------------------------------------------------------------------------------
  Total lattice energy       =         -27.78332194 eV
--------------------------------------------------------------------------------
  Total lattice energy       =           -2680.6659 kJ/(mole unit cells)
--------------------------------------------------------------------------------


  Number of variables =       27

  Maximum number of calculations  =          1000
  Maximum Hessian update interval =            10
  Maximum step size               =   1.000000000
  Maximum parameter tolerance     =   0.000010000
  Maximum function  tolerance     =   0.000010000
  Maximum gradient  tolerance     =   0.001000000
  Maximum gradient  component     =   0.010000000

  Symmetry not applied to optimisation

  Cell parameters to be optimised using strains

  Newton-Raphson optimiser to be used

  BFGS hessian update to be used

  Start of bulk optimisation :

  Cycle:      0 Energy:       -27.783322  Gnorm:      0.061675  CPU:    0.003
  ** Hessian calculated **
  Cycle:      1 Energy:       -27.803685  Gnorm:      0.000492  CPU:    0.005


  **** Optimisation achieved ****


  Final energy =     -27.80368633 eV
  Final Gnorm  =       0.00003074

  Components of energy : 

--------------------------------------------------------------------------------
  Interatomic potentials     =           3.28759282 eV
  Monopole - monopole (real) =          -7.75268340 eV
  Monopole - monopole (recip)=         -23.33859575 eV
  Monopole - monopole (total)=         -31.09127915 eV
--------------------------------------------------------------------------------
  Total lattice energy       =         -27.80368633 eV
--------------------------------------------------------------------------------
  Total lattice energy       =           -2682.6307 kJ/(mole unit cells)
--------------------------------------------------------------------------------

  Final fractional coordinates of atoms :

--------------------------------------------------------------------------------
   No.  Atomic        x           y          z          Radius
        Label       (Frac)      (Frac)     (Frac)       (Angs) 
--------------------------------------------------------------------------------
     1  K     c     0.000000    0.000000    0.000000    0.000000
     2  Zn    c     0.500000    0.500000    0.500000    0.000000
     3  F     c     0.500000    0.500000    0.000000    0.000000
     4  F     c     0.000000    0.500000    0.500000    0.000000
     5  F     c     0.500000    0.000000    0.500000    0.000000
     6  F     s     0.500000    0.500000    0.000000    0.000000
     7  F     s     0.000000    0.500000    0.500000    0.000000
     8  F     s     0.500000    0.000000    0.500000    0.000000
--------------------------------------------------------------------------------

  Final Cartesian lattice vectors (Angstroms) :

        4.142177    0.000000    0.000000
        0.000000    4.142177    0.000000
        0.000000    0.000000    4.142177


  Final cell parameters and derivatives :

--------------------------------------------------------------------------------
       a            4.142177 Angstrom     dE/de1(xx)     0.000479 eV/strain
       b            4.142177 Angstrom     dE/de2(yy)     0.000479 eV/strain
       c            4.142177 Angstrom     dE/de3(zz)     0.000479 eV/strain
       alpha       90.000000 Degrees      dE/de4(yz)     0.000000 eV/strain
       beta        90.000000 Degrees      dE/de5(xz)     0.000000 eV/strain
       gamma       90.000000 Degrees      dE/de6(xy)     0.000000 eV/strain
--------------------------------------------------------------------------------

  Primitive cell volume =            71.069939 Angs**3

  Density of cell =      3.773251 g/cm**3

  Non-primitive cell volume =            71.069939 Angs**3


  Final internal derivatives :

--------------------------------------------------------------------------------
   No.  Atomic          a             b             c           Radius
        Label          (eV)          (eV)          (eV)        (eV/Angs)
--------------------------------------------------------------------------------
      1 K     c       0.000000      0.000000      0.000000      0.000000
      2 Zn    c       0.000000      0.000000      0.000000      0.000000
      3 F     c       0.000000      0.000000      0.000000      0.000000
      4 F     c       0.000000      0.000000      0.000000      0.000000
      5 F     c       0.000000      0.000000      0.000000      0.000000
      6 F     s       0.000000      0.000000      0.000000      0.000000
      7 F     s       0.000000      0.000000      0.000000      0.000000
      8 F     s       0.000000      0.000000      0.000000      0.000000
--------------------------------------------------------------------------------
  Maximum abs         0.000000      0.000000      0.000000      0.000000
--------------------------------------------------------------------------------


  Born effective charge tensors : 

-------------------------------------------------------------------------------
  Atom             x           y             z
-------------------------------------------------------------------------------
   1 K     x       0.4225      0.0000      0.0000
           y       0.0000      0.4225      0.0000
           z       0.0000      0.0000      0.4225
-------------------------------------------------------------------------------
   2 Zn    x       1.4583      0.0000      0.0000
           y       0.0000      1.4583      0.0000
           z       0.0000      0.0000      1.4583
-------------------------------------------------------------------------------
   3 F     x      -0.6186      0.0000      0.0000
           y       0.0000     -0.6186      0.0000
           z       0.0000      0.0000     -0.6436
-------------------------------------------------------------------------------
   4 F     x      -0.6436      0.0000      0.0000
           y       0.0000     -0.6186      0.0000
           z       0.0000      0.0000     -0.6186
-------------------------------------------------------------------------------
   5 F     x      -0.6186      0.0000      0.0000
           y       0.0000     -0.6436      0.0000
           z       0.0000      0.0000     -0.6186
-------------------------------------------------------------------------------




  Elastic Constant Matrix: (Units=GPa)

-------------------------------------------------------------------------------
  Indices      1         2         3         4         5         6    
-------------------------------------------------------------------------------
       1    118.2998   23.2900   23.2900    0.0000    0.0000    0.0000
       2     23.2900  118.2998   23.2900    0.0000    0.0000    0.0000
       3     23.2900   23.2900  118.2998    0.0000    0.0000    0.0000
       4      0.0000    0.0000    0.0000   23.2911    0.0000    0.0000
       5      0.0000    0.0000    0.0000    0.0000   23.2911    0.0000
       6      0.0000    0.0000    0.0000    0.0000    0.0000   23.2911
-------------------------------------------------------------------------------


  Elastic Compliance Matrix: (Units=1/GPa)

-------------------------------------------------------------------------------
  Indices      1         2         3         4         5         6    
-------------------------------------------------------------------------------
       1    0.009038 -0.001487 -0.001487  0.000000  0.000000  0.000000
       2   -0.001487  0.009038 -0.001487  0.000000  0.000000  0.000000
       3   -0.001487 -0.001487  0.009038  0.000000  0.000000  0.000000
       4    0.000000  0.000000  0.000000  0.042935  0.000000  0.000000
       5    0.000000  0.000000  0.000000  0.000000  0.042935  0.000000
       6    0.000000  0.000000  0.000000  0.000000  0.000000  0.042935
-------------------------------------------------------------------------------

  Mechanical properties :

-------------------------------------------------------------------------------
  Convention :                    Reuss         Voigt         Hill
-------------------------------------------------------------------------------
  Bulk  Modulus (GPa)     =      54.95993      54.95993      54.95993
  Shear Modulus (GPa)     =      29.25590      32.97661      31.11625
-------------------------------------------------------------------------------
  Velocity S-wave (km/s)  =       2.78451       2.95628       2.87168
  Velocity P-wave (km/s)  =       4.99036       5.12039       5.05579
-------------------------------------------------------------------------------
  Compressibility (1/GPa) =    0.01819507
-------------------------------------------------------------------------------
  Stress axis :                     x             y             z
-------------------------------------------------------------------------------
  Youngs Moduli (GPa)     =     110.63795     110.63795     110.63795
-------------------------------------------------------------------------------
  Poissons Ratio (x)      =                     0.16449       0.16449
  Poissons Ratio (y)      =       0.16449                     0.16449
  Poissons Ratio (z)      =       0.16449       0.16449
-------------------------------------------------------------------------------


  Piezoelectric Strain Matrix: (Units=C/m**2)

-------------------------------------------------------------------------------
  Indices      1         2         3         4         5         6    
-------------------------------------------------------------------------------
       x     0.00000   0.00000   0.00000   0.00000   0.00000   0.00000
       y     0.00000   0.00000   0.00000   0.00000   0.00000   0.00000
       z     0.00000   0.00000   0.00000   0.00000   0.00000   0.00000
-------------------------------------------------------------------------------


  Piezoelectric Stress Matrix: (Units=10**-11 C/N)

-------------------------------------------------------------------------------
  Indices      1         2         3         4         5         6    
-------------------------------------------------------------------------------
       x     0.00000   0.00000   0.00000   0.00000   0.00000   0.00000
       y     0.00000   0.00000   0.00000   0.00000   0.00000   0.00000
       z     0.00000   0.00000   0.00000   0.00000   0.00000   0.00000
-------------------------------------------------------------------------------


  Static dielectric constant tensor : 

-------------------------------------------------------------------------------
              x         y         z
-------------------------------------------------------------------------------
       x     2.96508   0.00000   0.00000
       y     0.00000   2.96508   0.00000
       z     0.00000   0.00000   2.96508
--------------------------------------------------------------------------------

  High frequency dielectric constant tensor : 

-------------------------------------------------------------------------------
              x         y         z
-------------------------------------------------------------------------------
       x     1.54357   0.00000   0.00000
       y     0.00000   1.54357   0.00000
       z     0.00000   0.00000   1.54357
-------------------------------------------------------------------------------

  Static refractive indices : 

-------------------------------------------------------------------------------
    1 =    1.72194      2 =    1.72194      3 =    1.72194
-------------------------------------------------------------------------------

  High frequency refractive indices : 

-------------------------------------------------------------------------------
    1 =    1.24240      2 =    1.24240      3 =    1.24240
-------------------------------------------------------------------------------


  Time to end of optimisation =       0.0086 seconds


  Peak dynamic memory used =       0.50 MB 


  Timing analysis for GULP :

--------------------------------------------------------------------------------
  Task / Subroutine                                          Time (Seconds)
--------------------------------------------------------------------------------
  Calculation of reciprocal space energy and derivatives          0.0008
  Calculation of real space energy and derivatives                0.0049
--------------------------------------------------------------------------------
  Total CPU time                                                  0.0086
--------------------------------------------------------------------------------


  CIF file written as perov.cif                                               


  Job Finished at 14:01.02 22nd February   2017                               

