********************************************************************************
*                       GENERAL UTILITY LATTICE PROGRAM                        *
*                                 Julian Gale                                  *
*                      Nanochemistry Research Institute                        *
*                           Department of Chemistry                            *
*                    Curtin University, Western Australia                      *
********************************************************************************
* Version = 4.3.2 * Last modified =  3rd March 2015                            *
********************************************************************************
*  optimise     - perform optimisation run                                     *
*  conp         - constant pressure calculation                                *
*  property     - calculate properties for final geometry                      *
********************************************************************************

  Job Started  at 14:01.02 22nd February   2017                               

  Number of CPUs =     1


  Total number of configurations input =   1

********************************************************************************
*  Input for Configuration =   1                                               *
********************************************************************************

  Formula = KZnF3                                                       

  Number of irreducible atoms/shells =       8


  Total number atoms/shells =       8

  Dimensionality = 3               :  Bulk   



  Cartesian lattice vectors (Angstroms) :

        4.200000    0.000000    0.000000
        0.000000    4.200000    0.000000
        0.000000    0.000000    4.200000

  Cell parameters (Angstroms/Degrees):

  a =       4.2000    alpha =  90.0000
  b =       4.2000    beta  =  90.0000
  c =       4.2000    gamma =  90.0000

  Initial cell volume =          74.088000 Angs**3

  Temperature of configuration =  0.000     K 

  Pressure of configuration =         0.000 GPa 

  Fractional coordinates of asymmetric unit :

--------------------------------------------------------------------------------
   No.  Atomic       x           y          z         Charge      Occupancy
        Label      (Frac)      (Frac)     (Frac)        (e)         (Frac)  
--------------------------------------------------------------------------------
      1 K     c    0.000000    0.000000    0.000000     0.50000    1.000000    
      2 Zn    c    0.500000 *  0.500000 *  0.500000 *   2.00000    1.000000    
      3 F     c    0.500000 *  0.500000 *  0.000000 *   0.37800    1.000000    
      4 F     c    0.000000 *  0.500000 *  0.500000 *   0.37800    1.000000    
      5 F     c    0.500000 *  0.000000 *  0.500000 *   0.37800    1.000000    
      6 F     s    0.500000 *  0.500000 *  0.000000 *  -1.21133    1.000000    
      7 F     s    0.000000 *  0.500000 *  0.500000 *  -1.21133    1.000000    
      8 F     s    0.500000 *  0.000000 *  0.500000 *  -1.21133    1.000000    
--------------------------------------------------------------------------------



********************************************************************************
*  General input information                                                   *
********************************************************************************

  Species output for all configurations : 

--------------------------------------------------------------------------------
  Species    Type    Atomic    Atomic    Charge       Radii (Angs)     Library
                     Number     Mass       (e)     Cova   Ionic  VDW   Symbol
--------------------------------------------------------------------------------
    K        Core       19      39.10   0.500000   1.330  0.000  2.800          
    Zn       Core       30      65.39   2.000000   1.450  0.000  2.160          
    F        Core        9      19.00   0.378000   0.710  0.000  1.300          
    F        Shell       9       0.00  -1.211333   0.710  0.000  1.300          
--------------------------------------------------------------------------------


  Lattice summation method               =    Ewald          (3-D)
                                         =    Parry          (2-D)
                                         =    Saunders et al (1-D)
  Accuracy factor for lattice sums       =   12.000


  Time limit = Infinity

  Maximum range for interatomic potentials =    100000.000000 Angstroms

  General interatomic potentials :

--------------------------------------------------------------------------------
Atom  Types   Potential         A         B         C         D     Cutoffs(Ang)
  1     2                                                            Min    Max 
--------------------------------------------------------------------------------
K    c K    c Buckingham    0.219E+04 0.192      0.00      0.00     0.000 10.000
Zn   c F    s Buckingham    0.148E+04 0.266      0.00      0.00     0.000 10.000
F    s F    s Buckingham     912.     0.271      60.0      0.00     0.000 10.000
K    c F    s Buckingham    0.352E+04 0.267      0.00      0.00     0.000 10.000
F    c F    s Spring (c-s)   18.8      0.00      0.00      0.00     0.000  0.800
--------------------------------------------------------------------------------

********************************************************************************
*  Output for configuration   1                                                *
********************************************************************************


  Components of energy : 

--------------------------------------------------------------------------------
  Interatomic potentials     =           2.87991129 eV
  Monopole - monopole (real) =          -8.36675816 eV
  Monopole - monopole (recip)=         -25.20691079 eV
  Monopole - monopole (total)=         -33.57366895 eV
--------------------------------------------------------------------------------
  Total lattice energy       =         -30.69375766 eV
--------------------------------------------------------------------------------
  Total lattice energy       =           -2961.4784 kJ/(mole unit cells)
--------------------------------------------------------------------------------


  Number of variables =       27

  Maximum number of calculations  =          1000
  Maximum Hessian update interval =            10
  Maximum step size               =   1.000000000
  Maximum parameter tolerance     =   0.000010000
  Maximum function  tolerance     =   0.000010000
  Maximum gradient  tolerance     =   0.001000000
  Maximum gradient  component     =   0.010000000

  Symmetry not applied to optimisation

  Cell parameters to be optimised using strains

  Newton-Raphson optimiser to be used

  BFGS hessian update to be used

  Start of bulk optimisation :

  Cycle:      0 Energy:       -30.693758  Gnorm:      0.123910  CPU:    0.003
  ** Hessian calculated **
  Cycle:      1 Energy:       -30.775848  Gnorm:      0.010536  CPU:    0.005
  Cycle:      2 Energy:       -30.775848  Gnorm:      0.010536  CPU:    0.006
  Cycle:      3 Energy:       -30.775848  Gnorm:      0.010536  CPU:    0.007
  ** Hessian calculated **
  Cycle:      4 Energy:       -30.776072  Gnorm:      0.007831  CPU:    0.010
  Cycle:      5 Energy:       -30.776072  Gnorm:      0.007831  CPU:    0.012
  ** Hessian calculated **
  Cycle:      6 Energy:       -30.776073  Gnorm:      0.007805  CPU:    0.015
  Cycle:      7 Energy:       -30.776074  Gnorm:      0.007790  CPU:    0.018
  Cycle:      8 Energy:       -30.776075  Gnorm:      0.007782  CPU:    0.020
  Cycle:      9 Energy:       -30.776076  Gnorm:      0.007776  CPU:    0.022
  Cycle:     10 Energy:       -30.776076  Gnorm:      0.007771  CPU:    0.024
  Cycle:     11 Energy:       -30.776076  Gnorm:      0.007766  CPU:    0.026
  Cycle:     12 Energy:       -30.776076  Gnorm:      0.007762  CPU:    0.028
  Cycle:     13 Energy:       -30.776077  Gnorm:      0.007758  CPU:    0.030
  Cycle:     14 Energy:       -30.776077  Gnorm:      0.007754  CPU:    0.032
  Cycle:     15 Energy:       -30.776077  Gnorm:      0.007751  CPU:    0.035
  ** Hessian calculated **
  Cycle:     16 Energy:       -30.776078  Gnorm:      0.007739  CPU:    0.038
  Cycle:     17 Energy:       -30.776079  Gnorm:      0.007726  CPU:    0.040
  Cycle:     18 Energy:       -30.776080  Gnorm:      0.007715  CPU:    0.042
  Cycle:     19 Energy:       -30.776080  Gnorm:      0.007710  CPU:    0.044
  Cycle:     20 Energy:       -30.776080  Gnorm:      0.007710  CPU:    0.045
  ** Hessian calculated **
  Cycle:     21 Energy:       -30.776080  Gnorm:      0.007710  CPU:    0.049
  ** Hessian calculated **


  **** Conditions for a minimum have not been satisfied. However ****
  **** no lower point can be found - treat results with caution  ****
  **** unless gradient norm is small (less than 0.1)             ****


  Final energy =     -30.77608014 eV
  Final Gnorm  =       0.00770972

  Components of energy : 

--------------------------------------------------------------------------------
  Interatomic potentials     =           3.76403406 eV
  Monopole - monopole (real) =          -8.60760207 eV
  Monopole - monopole (recip)=         -25.93251214 eV
  Monopole - monopole (total)=         -34.54011421 eV
--------------------------------------------------------------------------------
  Total lattice energy       =         -30.77608014 eV
--------------------------------------------------------------------------------
  Total lattice energy       =           -2969.4213 kJ/(mole unit cells)
--------------------------------------------------------------------------------

  Final fractional coordinates of atoms :

--------------------------------------------------------------------------------
   No.  Atomic        x           y          z          Radius
        Label       (Frac)      (Frac)     (Frac)       (Angs) 
--------------------------------------------------------------------------------
     1  K     c     0.000000    0.000000    0.000000    0.000000
     2  Zn    c     0.500000    0.500000    0.500000    0.000000
     3  F     c     0.500000    0.500000    0.000000    0.000000
     4  F     c     0.000000    0.500000    0.500000    0.000000
     5  F     c     0.500000    0.000000    0.500000    0.000000
     6  F     s     0.500000    0.500000    0.000000    0.000000
     7  F     s     0.000000    0.500000    0.500000    0.000000
     8  F     s     0.500000    0.000000    0.500000    0.000000
--------------------------------------------------------------------------------

  Final Cartesian lattice vectors (Angstroms) :

        4.082482    0.000000    0.000000
        0.000000    4.082482    0.000000
        0.000000    0.000000    4.082482


  Final cell parameters and derivatives :

--------------------------------------------------------------------------------
       a            4.082482 Angstrom     dE/de1(xx)    -0.120183 eV/strain
       b            4.082482 Angstrom     dE/de2(yy)    -0.120183 eV/strain
       c            4.082482 Angstrom     dE/de3(zz)    -0.120183 eV/strain
       alpha       90.000000 Degrees      dE/de4(yz)     0.000000 eV/strain
       beta        90.000000 Degrees      dE/de5(xz)     0.000000 eV/strain
       gamma       90.000000 Degrees      dE/de6(xy)     0.000000 eV/strain
--------------------------------------------------------------------------------

  Primitive cell volume =            68.041358 Angs**3

  Density of cell =      3.941202 g/cm**3

  Non-primitive cell volume =            68.041358 Angs**3


  Final internal derivatives :

--------------------------------------------------------------------------------
   No.  Atomic          a             b             c           Radius
        Label          (eV)          (eV)          (eV)        (eV/Angs)
--------------------------------------------------------------------------------
      1 K     c       0.000000      0.000000      0.000000      0.000000
      2 Zn    c       0.000000      0.000000      0.000000      0.000000
      3 F     c       0.000000      0.000000      0.000000      0.000000
      4 F     c       0.000000      0.000000      0.000000      0.000000
      5 F     c       0.000000      0.000000      0.000000      0.000000
      6 F     s       0.000000      0.000000      0.000000      0.000000
      7 F     s       0.000000      0.000000      0.000000      0.000000
      8 F     s       0.000000      0.000000      0.000000      0.000000
--------------------------------------------------------------------------------
  Maximum abs         0.000000      0.000000      0.000000      0.000000
--------------------------------------------------------------------------------


  Born effective charge tensors : 

-------------------------------------------------------------------------------
  Atom             x           y             z
-------------------------------------------------------------------------------
   1 K     x       0.4053      0.0000      0.0000
           y       0.0000      0.4053      0.0000
           z       0.0000      0.0000      0.4053
-------------------------------------------------------------------------------
   2 Zn    x       1.5328      0.0000      0.0000
           y       0.0000      1.5328      0.0000
           z       0.0000      0.0000      1.5328
-------------------------------------------------------------------------------
   3 F     x      -0.6318      0.0000      0.0000
           y       0.0000     -0.6318      0.0000
           z       0.0000      0.0000     -0.6745
-------------------------------------------------------------------------------
   4 F     x      -0.6745      0.0000      0.0000
           y       0.0000     -0.6318      0.0000
           z       0.0000      0.0000     -0.6318
-------------------------------------------------------------------------------
   5 F     x      -0.6318      0.0000      0.0000
           y       0.0000     -0.6745      0.0000
           z       0.0000      0.0000     -0.6318
-------------------------------------------------------------------------------




  Elastic Constant Matrix: (Units=GPa)

-------------------------------------------------------------------------------
  Indices      1         2         3         4         5         6    
-------------------------------------------------------------------------------
       1    134.4424   27.7795   27.7795    0.0000    0.0000    0.0000
       2     27.7795  134.4424   27.7795    0.0000    0.0000    0.0000
       3     27.7795   27.7795  134.4424    0.0000    0.0000    0.0000
       4      0.0000    0.0000    0.0000   27.4965    0.0000    0.0000
       5      0.0000    0.0000    0.0000    0.0000   27.4965    0.0000
       6      0.0000    0.0000    0.0000    0.0000    0.0000   27.4965
-------------------------------------------------------------------------------


  Elastic Compliance Matrix: (Units=1/GPa)

-------------------------------------------------------------------------------
  Indices      1         2         3         4         5         6    
-------------------------------------------------------------------------------
       1    0.008005 -0.001371 -0.001371  0.000000  0.000000  0.000000
       2   -0.001371  0.008005 -0.001371  0.000000  0.000000  0.000000
       3   -0.001371 -0.001371  0.008005  0.000000  0.000000  0.000000
       4    0.000000  0.000000  0.000000  0.036368  0.000000  0.000000
       5    0.000000  0.000000  0.000000  0.000000  0.036368  0.000000
       6    0.000000  0.000000  0.000000  0.000000  0.000000  0.036368
-------------------------------------------------------------------------------

  Mechanical properties :

-------------------------------------------------------------------------------
  Convention :                    Reuss         Voigt         Hill
-------------------------------------------------------------------------------
  Bulk  Modulus (GPa)     =      63.33383      63.33383      63.33383
  Shear Modulus (GPa)     =      34.10501      37.83050      35.96775
-------------------------------------------------------------------------------
  Velocity S-wave (km/s)  =       2.94168       3.09818       3.02094
  Velocity P-wave (km/s)  =       5.25429       5.37289       5.31392
-------------------------------------------------------------------------------
  Compressibility (1/GPa) =    0.01578935
-------------------------------------------------------------------------------
  Stress axis :                     x             y             z
-------------------------------------------------------------------------------
  Youngs Moduli (GPa)     =     124.92828     124.92828     124.92828
-------------------------------------------------------------------------------
  Poissons Ratio (x)      =                     0.17124       0.17124
  Poissons Ratio (y)      =       0.17124                     0.17124
  Poissons Ratio (z)      =       0.17124       0.17124
-------------------------------------------------------------------------------


  Piezoelectric Strain Matrix: (Units=C/m**2)

-------------------------------------------------------------------------------
  Indices      1         2         3         4         5         6    
-------------------------------------------------------------------------------
       x     0.00000   0.00000   0.00000   0.00000   0.00000   0.00000
       y     0.00000   0.00000   0.00000   0.00000   0.00000   0.00000
       z     0.00000   0.00000   0.00000   0.00000   0.00000   0.00000
-------------------------------------------------------------------------------


  Piezoelectric Stress Matrix: (Units=10**-11 C/N)

-------------------------------------------------------------------------------
  Indices      1         2         3         4         5         6    
-------------------------------------------------------------------------------
       x     0.00000   0.00000   0.00000   0.00000   0.00000   0.00000
       y     0.00000   0.00000   0.00000   0.00000   0.00000   0.00000
       z     0.00000   0.00000   0.00000   0.00000   0.00000   0.00000
-------------------------------------------------------------------------------


  Static dielectric constant tensor : 

-------------------------------------------------------------------------------
              x         y         z
-------------------------------------------------------------------------------
       x     2.94485   0.00000   0.00000
       y     0.00000   2.94485   0.00000
       z     0.00000   0.00000   2.94485
--------------------------------------------------------------------------------

  High frequency dielectric constant tensor : 

-------------------------------------------------------------------------------
              x         y         z
-------------------------------------------------------------------------------
       x     1.56340   0.00000   0.00000
       y     0.00000   1.56340   0.00000
       z     0.00000   0.00000   1.56340
-------------------------------------------------------------------------------

  Static refractive indices : 

-------------------------------------------------------------------------------
    1 =    1.71606      2 =    1.71606      3 =    1.71606
-------------------------------------------------------------------------------

  High frequency refractive indices : 

-------------------------------------------------------------------------------
    1 =    1.25036      2 =    1.25036      3 =    1.25036
-------------------------------------------------------------------------------


  Time to end of optimisation =       0.0548 seconds


  Peak dynamic memory used =       0.50 MB 


  Timing analysis for GULP :

--------------------------------------------------------------------------------
  Task / Subroutine                                          Time (Seconds)
--------------------------------------------------------------------------------
  Calculation of reciprocal space energy and derivatives          0.0061
  Calculation of real space energy and derivatives                0.0447
  Global summation overhead                                       0.0001
--------------------------------------------------------------------------------
  Total CPU time                                                  0.0548
--------------------------------------------------------------------------------


  CIF file written as perov.cif                                               


  Job Finished at 14:01.02 22nd February   2017                               

