********************************************************************************
*                       GENERAL UTILITY LATTICE PROGRAM                        *
*                                 Julian Gale                                  *
*                      Nanochemistry Research Institute                        *
*                           Department of Chemistry                            *
*                    Curtin University, Western Australia                      *
********************************************************************************
* Version = 4.3.2 * Last modified =  3rd March 2015                            *
********************************************************************************
*  optimise     - perform optimisation run                                     *
*  conp         - constant pressure calculation                                *
*  property     - calculate properties for final geometry                      *
********************************************************************************

  Job Started  at 14:01.04 22nd February   2017                               

  Number of CPUs =     1


  Total number of configurations input =   1

********************************************************************************
*  Input for Configuration =   1                                               *
********************************************************************************

  Formula = KZnF3                                                       

  Number of irreducible atoms/shells =       8


  Total number atoms/shells =       8

  Dimensionality = 3               :  Bulk   



  Cartesian lattice vectors (Angstroms) :

        4.200000    0.000000    0.000000
        0.000000    4.200000    0.000000
        0.000000    0.000000    4.200000

  Cell parameters (Angstroms/Degrees):

  a =       4.2000    alpha =  90.0000
  b =       4.2000    beta  =  90.0000
  c =       4.2000    gamma =  90.0000

  Initial cell volume =          74.088000 Angs**3

  Temperature of configuration =  0.000     K 

  Pressure of configuration =         0.000 GPa 

  Fractional coordinates of asymmetric unit :

--------------------------------------------------------------------------------
   No.  Atomic       x           y          z         Charge      Occupancy
        Label      (Frac)      (Frac)     (Frac)        (e)         (Frac)  
--------------------------------------------------------------------------------
      1 K     c    0.000000    0.000000    0.000000     1.30000    1.000000    
      2 Zn    c    0.500000 *  0.500000 *  0.500000 *   1.50000    1.000000    
      3 F     c    0.500000 *  0.500000 *  0.000000 *   0.37800    1.000000    
      4 F     c    0.000000 *  0.500000 *  0.500000 *   0.37800    1.000000    
      5 F     c    0.500000 *  0.000000 *  0.500000 *   0.37800    1.000000    
      6 F     s    0.500000 *  0.500000 *  0.000000 *  -1.31133    1.000000    
      7 F     s    0.000000 *  0.500000 *  0.500000 *  -1.31133    1.000000    
      8 F     s    0.500000 *  0.000000 *  0.500000 *  -1.31133    1.000000    
--------------------------------------------------------------------------------



********************************************************************************
*  General input information                                                   *
********************************************************************************

  Species output for all configurations : 

--------------------------------------------------------------------------------
  Species    Type    Atomic    Atomic    Charge       Radii (Angs)     Library
                     Number     Mass       (e)     Cova   Ionic  VDW   Symbol
--------------------------------------------------------------------------------
    K        Core       19      39.10   1.300000   1.330  0.000  2.800          
    Zn       Core       30      65.39   1.500000   1.450  0.000  2.160          
    F        Core        9      19.00   0.378000   0.710  0.000  1.300          
    F        Shell       9       0.00  -1.311333   0.710  0.000  1.300          
--------------------------------------------------------------------------------


  Lattice summation method               =    Ewald          (3-D)
                                         =    Parry          (2-D)
                                         =    Saunders et al (1-D)
  Accuracy factor for lattice sums       =   12.000


  Time limit = Infinity

  Maximum range for interatomic potentials =    100000.000000 Angstroms

  General interatomic potentials :

--------------------------------------------------------------------------------
Atom  Types   Potential         A         B         C         D     Cutoffs(Ang)
  1     2                                                            Min    Max 
--------------------------------------------------------------------------------
K    c K    c Buckingham    0.219E+04 0.192      0.00      0.00     0.000 10.000
Zn   c F    s Buckingham    0.148E+04 0.266      0.00      0.00     0.000 10.000
F    s F    s Buckingham     912.     0.271      60.0      0.00     0.000 10.000
K    c F    s Buckingham    0.352E+04 0.267      0.00      0.00     0.000 10.000
F    c F    s Spring (c-s)   22.0      0.00      0.00      0.00     0.000  0.800
--------------------------------------------------------------------------------

********************************************************************************
*  Output for configuration   1                                                *
********************************************************************************


  Components of energy : 

--------------------------------------------------------------------------------
  Interatomic potentials     =           2.87991129 eV
  Monopole - monopole (real) =          -7.82917119 eV
  Monopole - monopole (recip)=         -25.97488597 eV
  Monopole - monopole (total)=         -33.80405716 eV
--------------------------------------------------------------------------------
  Total lattice energy       =         -30.92414588 eV
--------------------------------------------------------------------------------
  Total lattice energy       =           -2983.7074 kJ/(mole unit cells)
--------------------------------------------------------------------------------


  Number of variables =       27

  Maximum number of calculations  =          1000
  Maximum Hessian update interval =            10
  Maximum step size               =   1.000000000
  Maximum parameter tolerance     =   0.000010000
  Maximum function  tolerance     =   0.000010000
  Maximum gradient  tolerance     =   0.001000000
  Maximum gradient  component     =   0.010000000

  Symmetry not applied to optimisation

  Cell parameters to be optimised using strains

  Newton-Raphson optimiser to be used

  BFGS hessian update to be used

  Start of bulk optimisation :

  Cycle:      0 Energy:       -30.924146  Gnorm:      0.128836  CPU:    0.003
  ** Hessian calculated **
  Cycle:      1 Energy:       -31.012909  Gnorm:      0.007030  CPU:    0.005
  Cycle:      2 Energy:       -31.013013  Gnorm:      0.005139  CPU:    0.008
  Cycle:      3 Energy:       -31.013057  Gnorm:      0.004074  CPU:    0.010
  Cycle:      4 Energy:       -31.013077  Gnorm:      0.003467  CPU:    0.012
  Cycle:      5 Energy:       -31.013088  Gnorm:      0.003101  CPU:    0.014
  Cycle:      6 Energy:       -31.013094  Gnorm:      0.002911  CPU:    0.016
  Cycle:      7 Energy:       -31.013097  Gnorm:      0.002792  CPU:    0.018
  Cycle:      8 Energy:       -31.013099  Gnorm:      0.002705  CPU:    0.020
  Cycle:      9 Energy:       -31.013100  Gnorm:      0.002661  CPU:    0.022
  Cycle:     10 Energy:       -31.013100  Gnorm:      0.002650  CPU:    0.024
  ** Hessian calculated **
  Cycle:     11 Energy:       -31.013100  Gnorm:      0.002650  CPU:    0.028
  ** Hessian calculated **


  **** Conditions for a minimum have not been satisfied. However ****
  **** no lower point can be found - treat results with caution  ****
  **** unless gradient norm is small (less than 0.1)             ****


  Final energy =     -31.01310006 eV
  Final Gnorm  =       0.00265009

  Components of energy : 

--------------------------------------------------------------------------------
  Interatomic potentials     =           3.76409249 eV
  Monopole - monopole (real) =          -8.05455371 eV
  Monopole - monopole (recip)=         -26.72263884 eV
  Monopole - monopole (total)=         -34.77719255 eV
--------------------------------------------------------------------------------
  Total lattice energy       =         -31.01310006 eV
--------------------------------------------------------------------------------
  Total lattice energy       =           -2992.2901 kJ/(mole unit cells)
--------------------------------------------------------------------------------

  Final fractional coordinates of atoms :

--------------------------------------------------------------------------------
   No.  Atomic        x           y          z          Radius
        Label       (Frac)      (Frac)     (Frac)       (Angs) 
--------------------------------------------------------------------------------
     1  K     c     0.000000    0.000000    0.000000    0.000000
     2  Zn    c     0.500000    0.500000    0.500000    0.000000
     3  F     c     0.500000    0.500000    0.000000    0.000000
     4  F     c     0.000000    0.500000    0.500000    0.000000
     5  F     c     0.500000    0.000000    0.500000    0.000000
     6  F     s     0.500000    0.500000    0.000000    0.000000
     7  F     s     0.000000    0.500000    0.500000    0.000000
     8  F     s     0.500000    0.000000    0.500000    0.000000
--------------------------------------------------------------------------------

  Final Cartesian lattice vectors (Angstroms) :

        4.082476    0.000000    0.000000
        0.000000    4.082476    0.000000
        0.000000    0.000000    4.082476


  Final cell parameters and derivatives :

--------------------------------------------------------------------------------
       a            4.082476 Angstrom     dE/de1(xx)    -0.041311 eV/strain
       b            4.082476 Angstrom     dE/de2(yy)    -0.041311 eV/strain
       c            4.082476 Angstrom     dE/de3(zz)    -0.041311 eV/strain
       alpha       90.000000 Degrees      dE/de4(yz)     0.000000 eV/strain
       beta        90.000000 Degrees      dE/de5(xz)     0.000000 eV/strain
       gamma       90.000000 Degrees      dE/de6(xy)     0.000000 eV/strain
--------------------------------------------------------------------------------

  Primitive cell volume =            68.041017 Angs**3

  Density of cell =      3.941222 g/cm**3

  Non-primitive cell volume =            68.041017 Angs**3


  Final internal derivatives :

--------------------------------------------------------------------------------
   No.  Atomic          a             b             c           Radius
        Label          (eV)          (eV)          (eV)        (eV/Angs)
--------------------------------------------------------------------------------
      1 K     c       0.000000      0.000000      0.000000      0.000000
      2 Zn    c       0.000000      0.000000      0.000000      0.000000
      3 F     c       0.000000      0.000000      0.000000      0.000000
      4 F     c       0.000000      0.000000      0.000000      0.000000
      5 F     c       0.000000      0.000000      0.000000      0.000000
      6 F     s       0.000000      0.000000      0.000000      0.000000
      7 F     s       0.000000      0.000000      0.000000      0.000000
      8 F     s       0.000000      0.000000      0.000000      0.000000
--------------------------------------------------------------------------------
  Maximum abs         0.000000      0.000000      0.000000      0.000000
--------------------------------------------------------------------------------


  Born effective charge tensors : 

-------------------------------------------------------------------------------
  Atom             x           y             z
-------------------------------------------------------------------------------
   1 K     x       1.3842      0.0000      0.0000
           y       0.0000      1.3842      0.0000
           z       0.0000      0.0000      1.3842
-------------------------------------------------------------------------------
   2 Zn    x       0.9941      0.0000      0.0000
           y       0.0000      0.9941      0.0000
           z       0.0000      0.0000      0.9941
-------------------------------------------------------------------------------
   3 F     x      -0.8778      0.0000      0.0000
           y       0.0000     -0.8778      0.0000
           z       0.0000      0.0000     -0.6227
-------------------------------------------------------------------------------
   4 F     x      -0.6227      0.0000      0.0000
           y       0.0000     -0.8778      0.0000
           z       0.0000      0.0000     -0.8778
-------------------------------------------------------------------------------
   5 F     x      -0.8778      0.0000      0.0000
           y       0.0000     -0.6227      0.0000
           z       0.0000      0.0000     -0.8778
-------------------------------------------------------------------------------




  Elastic Constant Matrix: (Units=GPa)

-------------------------------------------------------------------------------
  Indices      1         2         3         4         5         6    
-------------------------------------------------------------------------------
       1    143.3480   23.2354   23.2354    0.0000    0.0000    0.0000
       2     23.2354  143.3480   23.2354    0.0000    0.0000    0.0000
       3     23.2354   23.2354  143.3480    0.0000    0.0000    0.0000
       4      0.0000    0.0000    0.0000   23.1382    0.0000    0.0000
       5      0.0000    0.0000    0.0000    0.0000   23.1382    0.0000
       6      0.0000    0.0000    0.0000    0.0000    0.0000   23.1382
-------------------------------------------------------------------------------


  Elastic Compliance Matrix: (Units=1/GPa)

-------------------------------------------------------------------------------
  Indices      1         2         3         4         5         6    
-------------------------------------------------------------------------------
       1    0.007306 -0.001019 -0.001019  0.000000  0.000000  0.000000
       2   -0.001019  0.007306 -0.001019  0.000000  0.000000  0.000000
       3   -0.001019 -0.001019  0.007306  0.000000  0.000000  0.000000
       4    0.000000  0.000000  0.000000  0.043219  0.000000  0.000000
       5    0.000000  0.000000  0.000000  0.000000  0.043219  0.000000
       6    0.000000  0.000000  0.000000  0.000000  0.000000  0.043219
-------------------------------------------------------------------------------

  Mechanical properties :

-------------------------------------------------------------------------------
  Convention :                    Reuss         Voigt         Hill
-------------------------------------------------------------------------------
  Bulk  Modulus (GPa)     =      63.27294      63.27294      63.27294
  Shear Modulus (GPa)     =      30.68273      37.90540      34.29407
-------------------------------------------------------------------------------
  Velocity S-wave (km/s)  =       2.79018       3.10124       2.94981
  Velocity P-wave (km/s)  =       5.14143       5.37380       5.25890
-------------------------------------------------------------------------------
  Compressibility (1/GPa) =    0.01580455
-------------------------------------------------------------------------------
  Stress axis :                     x             y             z
-------------------------------------------------------------------------------
  Youngs Moduli (GPa)     =     136.86610     136.86610     136.86610
-------------------------------------------------------------------------------
  Poissons Ratio (x)      =                     0.13948       0.13948
  Poissons Ratio (y)      =       0.13948                     0.13948
  Poissons Ratio (z)      =       0.13948       0.13948
-------------------------------------------------------------------------------


  Piezoelectric Strain Matrix: (Units=C/m**2)

-------------------------------------------------------------------------------
  Indices      1         2         3         4         5         6    
-------------------------------------------------------------------------------
       x     0.00000   0.00000   0.00000   0.00000   0.00000   0.00000
       y     0.00000   0.00000   0.00000   0.00000   0.00000   0.00000
       z     0.00000   0.00000   0.00000   0.00000   0.00000   0.00000
-------------------------------------------------------------------------------


  Piezoelectric Stress Matrix: (Units=10**-11 C/N)

-------------------------------------------------------------------------------
  Indices      1         2         3         4         5         6    
-------------------------------------------------------------------------------
       x     0.00000   0.00000   0.00000   0.00000   0.00000   0.00000
       y     0.00000   0.00000   0.00000   0.00000   0.00000   0.00000
       z     0.00000   0.00000   0.00000   0.00000   0.00000   0.00000
-------------------------------------------------------------------------------


  Static dielectric constant tensor : 

-------------------------------------------------------------------------------
              x         y         z
-------------------------------------------------------------------------------
       x    10.96322   0.00000   0.00000
       y     0.00000  10.96322   0.00000
       z     0.00000   0.00000  10.96322
--------------------------------------------------------------------------------

  High frequency dielectric constant tensor : 

-------------------------------------------------------------------------------
              x         y         z
-------------------------------------------------------------------------------
       x     1.58974   0.00000   0.00000
       y     0.00000   1.58974   0.00000
       z     0.00000   0.00000   1.58974
-------------------------------------------------------------------------------

  Static refractive indices : 

-------------------------------------------------------------------------------
    1 =    3.31108      2 =    3.31108      3 =    3.31108
-------------------------------------------------------------------------------

  High frequency refractive indices : 

-------------------------------------------------------------------------------
    1 =    1.26085      2 =    1.26085      3 =    1.26085
-------------------------------------------------------------------------------


  Time to end of optimisation =       0.0361 seconds


  Peak dynamic memory used =       0.50 MB 


  Timing analysis for GULP :

--------------------------------------------------------------------------------
  Task / Subroutine                                          Time (Seconds)
--------------------------------------------------------------------------------
  Calculation of reciprocal space energy and derivatives          0.0039
  Calculation of real space energy and derivatives                0.0278
--------------------------------------------------------------------------------
  Total CPU time                                                  0.0361
--------------------------------------------------------------------------------


  CIF file written as perov.cif                                               


  Job Finished at 14:01.04 22nd February   2017                               

