********************************************************************************
*                       GENERAL UTILITY LATTICE PROGRAM                        *
*                                 Julian Gale                                  *
*                      Nanochemistry Research Institute                        *
*                           Department of Chemistry                            *
*                    Curtin University, Western Australia                      *
********************************************************************************
* Version = 4.3.2 * Last modified =  3rd March 2015                            *
********************************************************************************
*  optimise     - perform optimisation run                                     *
*  conp         - constant pressure calculation                                *
*  property     - calculate properties for final geometry                      *
********************************************************************************

  Job Started  at 14:01.03 22nd February   2017                               

  Number of CPUs =     1


  Total number of configurations input =   1

********************************************************************************
*  Input for Configuration =   1                                               *
********************************************************************************

  Formula = KZnF3                                                       

  Number of irreducible atoms/shells =       8


  Total number atoms/shells =       8

  Dimensionality = 3               :  Bulk   



  Cartesian lattice vectors (Angstroms) :

        4.200000    0.000000    0.000000
        0.000000    4.200000    0.000000
        0.000000    0.000000    4.200000

  Cell parameters (Angstroms/Degrees):

  a =       4.2000    alpha =  90.0000
  b =       4.2000    beta  =  90.0000
  c =       4.2000    gamma =  90.0000

  Initial cell volume =          74.088000 Angs**3

  Temperature of configuration =  0.000     K 

  Pressure of configuration =         0.000 GPa 

  Fractional coordinates of asymmetric unit :

--------------------------------------------------------------------------------
   No.  Atomic       x           y          z         Charge      Occupancy
        Label      (Frac)      (Frac)     (Frac)        (e)         (Frac)  
--------------------------------------------------------------------------------
      1 K     c    0.000000    0.000000    0.000000     1.10000    1.000000    
      2 Zn    c    0.500000 *  0.500000 *  0.500000 *   2.00000    1.000000    
      3 F     c    0.500000 *  0.500000 *  0.000000 *   0.37800    1.000000    
      4 F     c    0.000000 *  0.500000 *  0.500000 *   0.37800    1.000000    
      5 F     c    0.500000 *  0.000000 *  0.500000 *   0.37800    1.000000    
      6 F     s    0.500000 *  0.500000 *  0.000000 *  -1.41133    1.000000    
      7 F     s    0.000000 *  0.500000 *  0.500000 *  -1.41133    1.000000    
      8 F     s    0.500000 *  0.000000 *  0.500000 *  -1.41133    1.000000    
--------------------------------------------------------------------------------



********************************************************************************
*  General input information                                                   *
********************************************************************************

  Species output for all configurations : 

--------------------------------------------------------------------------------
  Species    Type    Atomic    Atomic    Charge       Radii (Angs)     Library
                     Number     Mass       (e)     Cova   Ionic  VDW   Symbol
--------------------------------------------------------------------------------
    K        Core       19      39.10   1.100000   1.330  0.000  2.800          
    Zn       Core       30      65.39   2.000000   1.450  0.000  2.160          
    F        Core        9      19.00   0.378000   0.710  0.000  1.300          
    F        Shell       9       0.00  -1.411333   0.710  0.000  1.300          
--------------------------------------------------------------------------------


  Lattice summation method               =    Ewald          (3-D)
                                         =    Parry          (2-D)
                                         =    Saunders et al (1-D)
  Accuracy factor for lattice sums       =   12.000


  Time limit = Infinity

  Maximum range for interatomic potentials =    100000.000000 Angstroms

  General interatomic potentials :

--------------------------------------------------------------------------------
Atom  Types   Potential         A         B         C         D     Cutoffs(Ang)
  1     2                                                            Min    Max 
--------------------------------------------------------------------------------
K    c K    c Buckingham    0.219E+04 0.192      0.00      0.00     0.000 10.000
Zn   c F    s Buckingham    0.148E+04 0.266      0.00      0.00     0.000 10.000
F    s F    s Buckingham     912.     0.271      60.0      0.00     0.000 10.000
K    c F    s Buckingham    0.352E+04 0.267      0.00      0.00     0.000 10.000
F    c F    s Spring (c-s)   25.5      0.00      0.00      0.00     0.000  0.800
--------------------------------------------------------------------------------

********************************************************************************
*  Output for configuration   1                                                *
********************************************************************************


  Components of energy : 

--------------------------------------------------------------------------------
  Interatomic potentials     =           2.87991129 eV
  Monopole - monopole (real) =         -10.90909022 eV
  Monopole - monopole (recip)=         -33.60898270 eV
  Monopole - monopole (total)=         -44.51807293 eV
--------------------------------------------------------------------------------
  Total lattice energy       =         -41.63816164 eV
--------------------------------------------------------------------------------
  Total lattice energy       =           -4017.4461 kJ/(mole unit cells)
--------------------------------------------------------------------------------


  Number of variables =       27

  Maximum number of calculations  =          1000
  Maximum Hessian update interval =            10
  Maximum step size               =   1.000000000
  Maximum parameter tolerance     =   0.000010000
  Maximum function  tolerance     =   0.000010000
  Maximum gradient  tolerance     =   0.001000000
  Maximum gradient  component     =   0.010000000

  Symmetry not applied to optimisation

  Cell parameters to be optimised using strains

  Newton-Raphson optimiser to be used

  BFGS hessian update to be used

  Start of bulk optimisation :

  Cycle:      0 Energy:       -41.638162  Gnorm:      0.357938  CPU:    0.003
  ** Hessian calculated **
  Cycle:      1 Energy:       -42.239054  Gnorm:      0.098193  CPU:    0.004
  Cycle:      2 Energy:       -42.263159  Gnorm:      0.028912  CPU:    0.006
  Cycle:      3 Energy:       -42.270461  Gnorm:      0.000817  CPU:    0.008


  **** Optimisation achieved ****


  Final energy =     -42.27046304 eV
  Final Gnorm  =       0.00003043

  Components of energy : 

--------------------------------------------------------------------------------
  Interatomic potentials     =           5.41458260 eV
  Monopole - monopole (real) =         -11.68515237 eV
  Monopole - monopole (recip)=         -35.99989328 eV
  Monopole - monopole (total)=         -47.68504565 eV
--------------------------------------------------------------------------------
  Total lattice energy       =         -42.27046304 eV
--------------------------------------------------------------------------------
  Total lattice energy       =           -4078.4535 kJ/(mole unit cells)
--------------------------------------------------------------------------------

  Final fractional coordinates of atoms :

--------------------------------------------------------------------------------
   No.  Atomic        x           y          z          Radius
        Label       (Frac)      (Frac)     (Frac)       (Angs) 
--------------------------------------------------------------------------------
     1  K     c     0.000000    0.000000    0.000000    0.000000
     2  Zn    c     0.500000    0.500000    0.500000    0.000000
     3  F     c     0.500000    0.500000    0.000000    0.000000
     4  F     c     1.000000    0.500000    0.500000    0.000000
     5  F     c     0.500000    0.000000    0.500000    0.000000
     6  F     s     0.500000    0.500000    0.000000    0.000000
     7  F     s     1.000000    0.500000    0.500000    0.000000
     8  F     s     0.500000    0.000000    0.500000    0.000000
--------------------------------------------------------------------------------

  Final Cartesian lattice vectors (Angstroms) :

        3.921060    0.000000    0.000000
        0.000000    3.921060    0.000000
        0.000000    0.000000    3.921060


  Final cell parameters and derivatives :

--------------------------------------------------------------------------------
       a            3.921060 Angstrom     dE/de1(xx)     0.000474 eV/strain
       b            3.921060 Angstrom     dE/de2(yy)     0.000474 eV/strain
       c            3.921060 Angstrom     dE/de3(zz)     0.000474 eV/strain
       alpha       90.000000 Degrees      dE/de4(yz)     0.000000 eV/strain
       beta        90.000000 Degrees      dE/de5(xz)     0.000000 eV/strain
       gamma       90.000000 Degrees      dE/de6(xy)     0.000000 eV/strain
--------------------------------------------------------------------------------

  Primitive cell volume =            60.285148 Angs**3

  Density of cell =      4.448272 g/cm**3

  Non-primitive cell volume =            60.285148 Angs**3


  Final internal derivatives :

--------------------------------------------------------------------------------
   No.  Atomic          a             b             c           Radius
        Label          (eV)          (eV)          (eV)        (eV/Angs)
--------------------------------------------------------------------------------
      1 K     c       0.000000      0.000000      0.000000      0.000000
      2 Zn    c       0.000000      0.000000      0.000000      0.000000
      3 F     c       0.000000      0.000000      0.000000      0.000000
      4 F     c       0.000000      0.000000      0.000000      0.000000
      5 F     c       0.000000      0.000000      0.000000      0.000000
      6 F     s       0.000000      0.000000      0.000000      0.000000
      7 F     s       0.000000      0.000000      0.000000      0.000000
      8 F     s       0.000000      0.000000      0.000000      0.000000
--------------------------------------------------------------------------------
  Maximum abs         0.000000      0.000000      0.000000      0.000000
--------------------------------------------------------------------------------


  Born effective charge tensors : 

-------------------------------------------------------------------------------
  Atom             x           y             z
-------------------------------------------------------------------------------
   1 K     x       1.0838      0.0000      0.0000
           y       0.0000      1.0838      0.0000
           z       0.0000      0.0000      1.0838
-------------------------------------------------------------------------------
   2 Zn    x       1.4439      0.0000      0.0000
           y       0.0000      1.4439      0.0000
           z       0.0000      0.0000      1.4439
-------------------------------------------------------------------------------
   3 F     x      -0.8658      0.0000      0.0000
           y       0.0000     -0.8658      0.0000
           z       0.0000      0.0000     -0.7962
-------------------------------------------------------------------------------
   4 F     x      -0.7962      0.0000      0.0000
           y       0.0000     -0.8658      0.0000
           z       0.0000      0.0000     -0.8658
-------------------------------------------------------------------------------
   5 F     x      -0.8658      0.0000      0.0000
           y       0.0000     -0.7962      0.0000
           z       0.0000      0.0000     -0.8658
-------------------------------------------------------------------------------




  Elastic Constant Matrix: (Units=GPa)

-------------------------------------------------------------------------------
  Indices      1         2         3         4         5         6    
-------------------------------------------------------------------------------
       1    185.9243   45.9787   45.9787    0.0000    0.0000    0.0000
       2     45.9787  185.9243   45.9787    0.0000    0.0000    0.0000
       3     45.9787   45.9787  185.9243    0.0000    0.0000    0.0000
       4      0.0000    0.0000    0.0000   45.9800    0.0000    0.0000
       5      0.0000    0.0000    0.0000    0.0000   45.9800    0.0000
       6      0.0000    0.0000    0.0000    0.0000    0.0000   45.9800
-------------------------------------------------------------------------------


  Elastic Compliance Matrix: (Units=1/GPa)

-------------------------------------------------------------------------------
  Indices      1         2         3         4         5         6    
-------------------------------------------------------------------------------
       1    0.005963 -0.001182 -0.001182  0.000000  0.000000  0.000000
       2   -0.001182  0.005963 -0.001182  0.000000  0.000000  0.000000
       3   -0.001182 -0.001182  0.005963  0.000000  0.000000  0.000000
       4    0.000000  0.000000  0.000000  0.021749  0.000000  0.000000
       5    0.000000  0.000000  0.000000  0.000000  0.021749  0.000000
       6    0.000000  0.000000  0.000000  0.000000  0.000000  0.021749
-------------------------------------------------------------------------------

  Mechanical properties :

-------------------------------------------------------------------------------
  Convention :                    Reuss         Voigt         Hill
-------------------------------------------------------------------------------
  Bulk  Modulus (GPa)     =      92.62724      92.62724      92.62724
  Shear Modulus (GPa)     =      53.28881      55.57710      54.43296
-------------------------------------------------------------------------------
  Velocity S-wave (km/s)  =       3.46117       3.53470       3.49812
  Velocity P-wave (km/s)  =       6.06598       6.12225       6.09418
-------------------------------------------------------------------------------
  Compressibility (1/GPa) =    0.01079596
-------------------------------------------------------------------------------
  Stress axis :                     x             y             z
-------------------------------------------------------------------------------
  Youngs Moduli (GPa)     =     167.69217     167.69217     167.69217
-------------------------------------------------------------------------------
  Poissons Ratio (x)      =                     0.19827       0.19827
  Poissons Ratio (y)      =       0.19827                     0.19827
  Poissons Ratio (z)      =       0.19827       0.19827
-------------------------------------------------------------------------------


  Piezoelectric Strain Matrix: (Units=C/m**2)

-------------------------------------------------------------------------------
  Indices      1         2         3         4         5         6    
-------------------------------------------------------------------------------
       x     0.00000   0.00000   0.00000   0.00000   0.00000   0.00000
       y     0.00000   0.00000   0.00000   0.00000   0.00000   0.00000
       z     0.00000   0.00000   0.00000   0.00000   0.00000   0.00000
-------------------------------------------------------------------------------


  Piezoelectric Stress Matrix: (Units=10**-11 C/N)

-------------------------------------------------------------------------------
  Indices      1         2         3         4         5         6    
-------------------------------------------------------------------------------
       x     0.00000   0.00000   0.00000   0.00000   0.00000   0.00000
       y     0.00000   0.00000   0.00000   0.00000   0.00000   0.00000
       z     0.00000   0.00000   0.00000   0.00000   0.00000   0.00000
-------------------------------------------------------------------------------


  Static dielectric constant tensor : 

-------------------------------------------------------------------------------
              x         y         z
-------------------------------------------------------------------------------
       x     4.16348   0.00000   0.00000
       y     0.00000   4.16348   0.00000
       z     0.00000   0.00000   4.16348
--------------------------------------------------------------------------------

  High frequency dielectric constant tensor : 

-------------------------------------------------------------------------------
              x         y         z
-------------------------------------------------------------------------------
       x     1.64818   0.00000   0.00000
       y     0.00000   1.64818   0.00000
       z     0.00000   0.00000   1.64818
-------------------------------------------------------------------------------

  Static refractive indices : 

-------------------------------------------------------------------------------
    1 =    2.04046      2 =    2.04046      3 =    2.04046
-------------------------------------------------------------------------------

  High frequency refractive indices : 

-------------------------------------------------------------------------------
    1 =    1.28381      2 =    1.28381      3 =    1.28381
-------------------------------------------------------------------------------


  Time to end of optimisation =       0.0117 seconds


  Peak dynamic memory used =       0.50 MB 


  Timing analysis for GULP :

--------------------------------------------------------------------------------
  Task / Subroutine                                          Time (Seconds)
--------------------------------------------------------------------------------
  Calculation of reciprocal space energy and derivatives          0.0011
  Calculation of real space energy and derivatives                0.0077
--------------------------------------------------------------------------------
  Total CPU time                                                  0.0117
--------------------------------------------------------------------------------


  CIF file written as perov.cif                                               


  Job Finished at 14:01.03 22nd February   2017                               

