********************************************************************************
*                       GENERAL UTILITY LATTICE PROGRAM                        *
*                                 Julian Gale                                  *
*                      Nanochemistry Research Institute                        *
*                           Department of Chemistry                            *
*                    Curtin University, Western Australia                      *
********************************************************************************
* Version = 4.3.2 * Last modified =  3rd March 2015                            *
********************************************************************************
*  optimise     - perform optimisation run                                     *
*  cell_only    - only optimise unit cell                                      *
*  property     - calculate properties for final geometry                      *
********************************************************************************

  Job Started  at 09:35.59  6th April      2017                               

  Number of CPUs =     1


  Total number of configurations input =   1

********************************************************************************
*  Input for Configuration =   1                                               *
********************************************************************************

  Formula = K4Ca4F12                                                    

  Number of irreducible atoms/shells =       6


  Total number atoms/shells =      32

  Dimensionality = 3               :  Bulk   


  Symmetry :

  Crystal family                   :  Orthorhombic
  Crystal class  (Groth - 1921)    :  Orthorhombic Bipyramidal             

  Space group (centrosymmetric)    :  P N M A         

  Patterson group                  :  P m m m  

  Cartesian lattice vectors (Angstroms) :

        6.223500    0.000000    0.000000
        0.000000    8.710300    0.000000
        0.000000    0.000000    6.118000

  Cell parameters (Angstroms/Degrees):

  a =       6.2235    alpha =  90.0000
  b =       8.7103    beta  =  90.0000
  c =       6.1180    gamma =  90.0000

  Initial cell volume =         331.647921 Angs**3

  Temperature of configuration =  0.000     K 

  Pressure of configuration =         0.000 GPa 

  Fractional coordinates of asymmetric unit :

--------------------------------------------------------------------------------
   No.  Atomic       x           y          z         Charge      Occupancy
        Label      (Frac)      (Frac)     (Frac)        (e)         (Frac)  
--------------------------------------------------------------------------------
      1 K     c    0.042000    0.250000    0.490600     0.90000    1.000000    
      2 Ca    c    0.000000    0.000000    0.000000     1.60000    1.000000    
      3 F     c    0.471500    0.250000    0.581200     0.37800    1.000000    
      4 F     c    0.291600    0.040400    0.206800     0.37800    1.000000    
      5 F     s    0.471500    0.250000    0.581200    -1.21133    1.000000    
      6 F     s    0.291600    0.040400    0.206800    -1.21133    1.000000    
--------------------------------------------------------------------------------



********************************************************************************
*  General input information                                                   *
********************************************************************************

  Species output for all configurations : 

--------------------------------------------------------------------------------
  Species    Type    Atomic    Atomic    Charge       Radii (Angs)     Library
                     Number     Mass       (e)     Cova   Ionic  VDW   Symbol
--------------------------------------------------------------------------------
    K        Core       19      39.10   0.900000   1.330  0.000  2.800          
    Ca       Core       20      40.08   1.600000   0.990  0.000  2.750          
    F        Core        9      19.00   0.378000   0.710  0.000  1.300          
    F        Shell       9       0.00  -1.211333   0.710  0.000  1.300          
--------------------------------------------------------------------------------


  Lattice summation method               =    Ewald          (3-D)
                                         =    Parry          (2-D)
                                         =    Saunders et al (1-D)
  Accuracy factor for lattice sums       =   12.000


  Time limit = Infinity

  Maximum range for interatomic potentials =    100000.000000 Angstroms

  General interatomic potentials :

--------------------------------------------------------------------------------
Atom  Types   Potential         A         B         C         D     Cutoffs(Ang)
  1     2                                                            Min    Max 
--------------------------------------------------------------------------------
K    c K    c Buckingham    0.219E+04 0.192      0.00      0.00     0.000 10.000
Ca   c F    s Buckingham    0.148E+04 0.266      0.00      0.00     0.000 10.000
F    s F    s Buckingham     912.     0.271      13.8      0.00     0.000 10.000
K    c F    s Buckingham    0.352E+04 0.267      0.00      0.00     0.000 10.000
F    c F    s Spring (c-s)   18.8      0.00      0.00      0.00     0.000  0.800
--------------------------------------------------------------------------------

********************************************************************************
*  Output for configuration   1                                                *
********************************************************************************


  Components of energy : 

--------------------------------------------------------------------------------
  Interatomic potentials     =          10.66009013 eV
  Monopole - monopole (real) =         -49.47831846 eV
  Monopole - monopole (recip)=         -60.54848830 eV
  Monopole - monopole (total)=        -110.02680676 eV
--------------------------------------------------------------------------------
  Total lattice energy       =         -99.36671663 eV
--------------------------------------------------------------------------------
  Total lattice energy       =           -9587.3692 kJ/(mole unit cells)
--------------------------------------------------------------------------------


  Number of variables =        3

  Maximum number of calculations  =          1000
  Maximum Hessian update interval =            10
  Maximum step size               =   1.000000000
  Maximum parameter tolerance     =   0.000010000
  Maximum function  tolerance     =   0.000010000
  Maximum gradient  tolerance     =   0.001000000
  Maximum gradient  component     =   0.010000000

  Symmetry constrained optimisation

  Symmetry used for second derivatives

  Cell parameters to be optimised using strains

  Newton-Raphson optimiser to be used

  BFGS hessian update to be used

  Start of bulk optimisation :

  Cycle:      0 Energy:       -99.366717  Gnorm:      2.032034  CPU:    0.010
  ** Hessian calculated **
  Cycle:      1 Energy:       -99.443730  Gnorm:      0.034528  CPU:    0.017
  Cycle:      2 Energy:       -99.443765  Gnorm:      0.004630  CPU:    0.023


  **** Optimisation achieved ****


  Final energy =     -99.44376610 eV
  Final Gnorm  =       0.00017171

  Components of energy : 

--------------------------------------------------------------------------------
  Interatomic potentials     =          12.11662321 eV
  Monopole - monopole (real) =         -50.16580476 eV
  Monopole - monopole (recip)=         -61.39458455 eV
  Monopole - monopole (total)=        -111.56038931 eV
--------------------------------------------------------------------------------
  Total lattice energy       =         -99.44376610 eV
--------------------------------------------------------------------------------
  Total lattice energy       =           -9594.8033 kJ/(mole unit cells)
--------------------------------------------------------------------------------

  Final asymmetric unit coordinates :

--------------------------------------------------------------------------------
   No.  Atomic        x           y           z         Radius
        Label       (Frac)      (Frac)      (Frac)       (Angs) 
--------------------------------------------------------------------------------
     1  K     c     0.042000    0.250000    0.490600    0.000000
     2  Ca    c     0.000000    0.000000    0.000000    0.000000
     3  F     c     0.471500    0.250000    0.581200    0.000000
     4  F     c     0.291600    0.040400    0.206800    0.000000
     5  F     s     0.471500    0.250000    0.581200    0.000000
     6  F     s     0.291600    0.040400    0.206800    0.000000
--------------------------------------------------------------------------------

  Final Cartesian lattice vectors (Angstroms) :

        6.156810    0.000000    0.000000
        0.000000    8.546434    0.000000
        0.000000    0.000000    6.045812


  Final cell parameters and derivatives :

--------------------------------------------------------------------------------
       a            6.156810 Angstrom     dE/de1(xx)     0.000345 eV/strain
       b            8.546434 Angstrom     dE/de2(yy)     0.000160 eV/strain
       c            6.045812 Angstrom     dE/de3(zz)     0.000347 eV/strain
       alpha       90.000000 Degrees      dE/de4(yz)     0.000000 eV/strain
       beta        90.000000 Degrees      dE/de5(xz)     0.000000 eV/strain
       gamma       90.000000 Degrees      dE/de6(xy)     0.000000 eV/strain
--------------------------------------------------------------------------------

  Primitive cell volume =           318.123180 Angs**3

  Density of cell =      2.843374 g/cm**3

  Non-primitive cell volume =           318.123180 Angs**3


  Final internal derivatives :

--------------------------------------------------------------------------------
   No.  Atomic          a             b             c           Radius
        Label          (eV)          (eV)          (eV)        (eV/Angs)
--------------------------------------------------------------------------------
      1 K     c       0.000000      0.000000      0.000000      0.000000
      2 Ca    c       0.000000      0.000000      0.000000      0.000000
      3 F     c       0.000000      0.000000      0.000000      0.000000
      4 F     c       0.000000      0.000000      0.000000      0.000000
      5 F     s       0.000000      0.000000      0.000000      0.000000
      6 F     s       0.000000      0.000000      0.000000      0.000000
--------------------------------------------------------------------------------
  Maximum abs         0.000000      0.000000      0.000000      0.000000
--------------------------------------------------------------------------------


  Born effective charge tensors : 

-------------------------------------------------------------------------------
  Atom             x           y             z
-------------------------------------------------------------------------------
   1 K     x       0.8274      0.0000     -0.0297
           y       0.0000      0.8602      0.0000
           z      -0.0312      0.0000      0.8190
-------------------------------------------------------------------------------
   2 Ca    x       1.3995      0.0085     -0.0116
           y       0.0025      1.3730     -0.0035
           z       0.0012      0.0125      1.3997
-------------------------------------------------------------------------------
   3 F     x      -0.7066      0.0000      0.0161
           y       0.0000     -0.7955      0.0000
           z       0.0228      0.0000     -0.6876
-------------------------------------------------------------------------------
   4 F     x      -0.7602      0.0176     -0.0494
           y       0.0215     -0.7189     -0.0194
           z      -0.0483     -0.0198     -0.7655
-------------------------------------------------------------------------------




  Elastic Constant Matrix: (Units=GPa)

-------------------------------------------------------------------------------
  Indices      1         2         3         4         5         6    
-------------------------------------------------------------------------------
       1     67.8798   29.0287   33.1374    0.0000    0.0000    0.0000
       2     29.0287   73.8061   32.1137    0.0000    0.0000    0.0000
       3     33.1374   32.1137   69.8862    0.0000    0.0000    0.0000
       4      0.0000    0.0000    0.0000   21.1339    0.0000    0.0000
       5      0.0000    0.0000    0.0000    0.0000   19.9319    0.0000
       6      0.0000    0.0000    0.0000    0.0000    0.0000   24.6838
-------------------------------------------------------------------------------


  Elastic Compliance Matrix: (Units=1/GPa)

-------------------------------------------------------------------------------
  Indices      1         2         3         4         5         6    
-------------------------------------------------------------------------------
       1    0.020433 -0.004776 -0.007494  0.000000  0.000000  0.000000
       2   -0.004776  0.018051 -0.006030  0.000000  0.000000  0.000000
       3   -0.007494 -0.006030  0.020633  0.000000  0.000000  0.000000
       4    0.000000  0.000000  0.000000  0.047317  0.000000  0.000000
       5    0.000000  0.000000  0.000000  0.000000  0.050171  0.000000
       6    0.000000  0.000000  0.000000  0.000000  0.000000  0.040512
-------------------------------------------------------------------------------

  Mechanical properties :

-------------------------------------------------------------------------------
  Convention :                    Reuss         Voigt         Hill
-------------------------------------------------------------------------------
  Bulk  Modulus (GPa)     =      44.41026      44.45907      44.43467
  Shear Modulus (GPa)     =      20.72770      20.96941      20.84856
-------------------------------------------------------------------------------
  Velocity S-wave (km/s)  =       2.69997       2.71566       2.70783
  Velocity P-wave (km/s)  =       5.03375       5.04670       5.04023
-------------------------------------------------------------------------------
  Compressibility (1/GPa) =    0.02251732
-------------------------------------------------------------------------------
  Stress axis :                     x             y             z
-------------------------------------------------------------------------------
  Youngs Moduli (GPa)     =      48.94142      55.39805      48.46532
-------------------------------------------------------------------------------
  Poissons Ratio (x)      =                     0.26456       0.36319
  Poissons Ratio (y)      =       0.23373                     0.29226
  Poissons Ratio (z)      =       0.36676       0.33407
-------------------------------------------------------------------------------


  Piezoelectric Strain Matrix: (Units=C/m**2)

-------------------------------------------------------------------------------
  Indices      1         2         3         4         5         6    
-------------------------------------------------------------------------------
       x     0.00000   0.00000   0.00000   0.00000   0.00000   0.00000
       y     0.00000   0.00000   0.00000   0.00000   0.00000   0.00000
       z     0.00000   0.00000   0.00000   0.00000   0.00000   0.00000
-------------------------------------------------------------------------------


  Piezoelectric Stress Matrix: (Units=10**-11 C/N)

-------------------------------------------------------------------------------
  Indices      1         2         3         4         5         6    
-------------------------------------------------------------------------------
       x     0.00000   0.00000   0.00000   0.00000   0.00000   0.00000
       y     0.00000   0.00000   0.00000   0.00000   0.00000   0.00000
       z     0.00000   0.00000   0.00000   0.00000   0.00000   0.00000
-------------------------------------------------------------------------------


  Static dielectric constant tensor : 

-------------------------------------------------------------------------------
              x         y         z
-------------------------------------------------------------------------------
       x     3.76921   0.00000   0.00000
       y     0.00000   4.07077   0.00000
       z     0.00000   0.00000   3.52802
--------------------------------------------------------------------------------

  High frequency dielectric constant tensor : 

-------------------------------------------------------------------------------
              x         y         z
-------------------------------------------------------------------------------
       x     1.52188   0.00000   0.00000
       y     0.00000   1.52320   0.00000
       z     0.00000   0.00000   1.52006
-------------------------------------------------------------------------------

  Static refractive indices : 

-------------------------------------------------------------------------------
    1 =    1.87830      2 =    1.94145      3 =    2.01762
-------------------------------------------------------------------------------

  High frequency refractive indices : 

-------------------------------------------------------------------------------
    1 =    1.23291      2 =    1.23364      3 =    1.23418
-------------------------------------------------------------------------------


  Time to end of optimisation =       0.0465 seconds


  Peak dynamic memory used =       0.73 MB 


  Timing analysis for GULP :

--------------------------------------------------------------------------------
  Task / Subroutine                                          Time (Seconds)
--------------------------------------------------------------------------------
  Calculation of reciprocal space energy and derivatives          0.0025
  Calculation of reciprocal space energy using symmetry           0.0035
  Calculation of real space energy and derivatives                0.0136
  Calculation of real space energy using symmetry                 0.0217
  Symmetry generation of equivalent positions                     0.0004
--------------------------------------------------------------------------------
  Total CPU time                                                  0.0466
--------------------------------------------------------------------------------


  CIF file written as perov.cif                                               


  Job Finished at 09:35.59  6th April      2017                               

