********************************************************************************
*                       GENERAL UTILITY LATTICE PROGRAM                        *
*                                 Julian Gale                                  *
*                      Nanochemistry Research Institute                        *
*                           Department of Chemistry                            *
*                    Curtin University, Western Australia                      *
********************************************************************************
* Version = 4.3.2 * Last modified =  3rd March 2015                            *
********************************************************************************
*  optimise     - perform optimisation run                                     *
*  cell_only    - only optimise unit cell                                      *
*  property     - calculate properties for final geometry                      *
********************************************************************************

  Job Started  at 09:35.57  6th April      2017                               

  Number of CPUs =     1


  Total number of configurations input =   1

********************************************************************************
*  Input for Configuration =   1                                               *
********************************************************************************

  Formula = K4Ca4F12                                                    

  Number of irreducible atoms/shells =       6


  Total number atoms/shells =      32

  Dimensionality = 3               :  Bulk   


  Symmetry :

  Crystal family                   :  Orthorhombic
  Crystal class  (Groth - 1921)    :  Orthorhombic Bipyramidal             

  Space group (centrosymmetric)    :  P N M A         

  Patterson group                  :  P m m m  

  Cartesian lattice vectors (Angstroms) :

        6.223500    0.000000    0.000000
        0.000000    8.710300    0.000000
        0.000000    0.000000    6.118000

  Cell parameters (Angstroms/Degrees):

  a =       6.2235    alpha =  90.0000
  b =       8.7103    beta  =  90.0000
  c =       6.1180    gamma =  90.0000

  Initial cell volume =         331.647921 Angs**3

  Temperature of configuration =  0.000     K 

  Pressure of configuration =         0.000 GPa 

  Fractional coordinates of asymmetric unit :

--------------------------------------------------------------------------------
   No.  Atomic       x           y          z         Charge      Occupancy
        Label      (Frac)      (Frac)     (Frac)        (e)         (Frac)  
--------------------------------------------------------------------------------
      1 K     c    0.042000    0.250000    0.490600     0.60000    1.000000    
      2 Ca    c    0.000000    0.000000    0.000000     1.60000    1.000000    
      3 F     c    0.471500    0.250000    0.581200     0.37800    1.000000    
      4 F     c    0.291600    0.040400    0.206800     0.37800    1.000000    
      5 F     s    0.471500    0.250000    0.581200    -1.11133    1.000000    
      6 F     s    0.291600    0.040400    0.206800    -1.11133    1.000000    
--------------------------------------------------------------------------------



********************************************************************************
*  General input information                                                   *
********************************************************************************

  Species output for all configurations : 

--------------------------------------------------------------------------------
  Species    Type    Atomic    Atomic    Charge       Radii (Angs)     Library
                     Number     Mass       (e)     Cova   Ionic  VDW   Symbol
--------------------------------------------------------------------------------
    K        Core       19      39.10   0.600000   1.330  0.000  2.800          
    Ca       Core       20      40.08   1.600000   0.990  0.000  2.750          
    F        Core        9      19.00   0.378000   0.710  0.000  1.300          
    F        Shell       9       0.00  -1.111333   0.710  0.000  1.300          
--------------------------------------------------------------------------------


  Lattice summation method               =    Ewald          (3-D)
                                         =    Parry          (2-D)
                                         =    Saunders et al (1-D)
  Accuracy factor for lattice sums       =   12.000


  Time limit = Infinity

  Maximum range for interatomic potentials =    100000.000000 Angstroms

  General interatomic potentials :

--------------------------------------------------------------------------------
Atom  Types   Potential         A         B         C         D     Cutoffs(Ang)
  1     2                                                            Min    Max 
--------------------------------------------------------------------------------
K    c K    c Buckingham    0.219E+04 0.192      0.00      0.00     0.000 10.000
Ca   c F    s Buckingham    0.148E+04 0.266      0.00      0.00     0.000 10.000
F    s F    s Buckingham     912.     0.271      13.8      0.00     0.000 10.000
K    c F    s Buckingham    0.352E+04 0.267      0.00      0.00     0.000 10.000
F    c F    s Spring (c-s)   15.8      0.00      0.00      0.00     0.000  0.800
--------------------------------------------------------------------------------

********************************************************************************
*  Output for configuration   1                                                *
********************************************************************************


  Components of energy : 

--------------------------------------------------------------------------------
  Interatomic potentials     =          10.66009013 eV
  Monopole - monopole (real) =         -41.04604255 eV
  Monopole - monopole (recip)=         -50.30363780 eV
  Monopole - monopole (total)=         -91.34968035 eV
--------------------------------------------------------------------------------
  Total lattice energy       =         -80.68959022 eV
--------------------------------------------------------------------------------
  Total lattice energy       =           -7785.3120 kJ/(mole unit cells)
--------------------------------------------------------------------------------


  Number of variables =        3

  Maximum number of calculations  =          1000
  Maximum Hessian update interval =            10
  Maximum step size               =   1.000000000
  Maximum parameter tolerance     =   0.000010000
  Maximum function  tolerance     =   0.000010000
  Maximum gradient  tolerance     =   0.001000000
  Maximum gradient  component     =   0.010000000

  Symmetry constrained optimisation

  Symmetry used for second derivatives

  Cell parameters to be optimised using strains

  Newton-Raphson optimiser to be used

  BFGS hessian update to be used

  Start of bulk optimisation :

  Cycle:      0 Energy:       -80.689590  Gnorm:      1.586330  CPU:    0.007
  ** Hessian calculated **
  Cycle:      1 Energy:       -80.737774  Gnorm:      0.012959  CPU:    0.015


  **** Optimisation achieved ****


  Final energy =     -80.73778071 eV
  Final Gnorm  =       0.00016360

  Components of energy : 

--------------------------------------------------------------------------------
  Interatomic potentials     =           9.56104076 eV
  Monopole - monopole (real) =         -40.57211463 eV
  Monopole - monopole (recip)=         -49.72670684 eV
  Monopole - monopole (total)=         -90.29882147 eV
--------------------------------------------------------------------------------
  Total lattice energy       =         -80.73778071 eV
--------------------------------------------------------------------------------
  Total lattice energy       =           -7789.9616 kJ/(mole unit cells)
--------------------------------------------------------------------------------

  Final asymmetric unit coordinates :

--------------------------------------------------------------------------------
   No.  Atomic        x           y           z         Radius
        Label       (Frac)      (Frac)      (Frac)       (Angs) 
--------------------------------------------------------------------------------
     1  K     c     0.042000    0.250000    0.490600    0.000000
     2  Ca    c     0.000000    0.000000    0.000000    0.000000
     3  F     c     0.471500    0.250000    0.581200    0.000000
     4  F     c     0.291600    0.040400    0.206800    0.000000
     5  F     s     0.471500    0.250000    0.581200    0.000000
     6  F     s     0.291600    0.040400    0.206800    0.000000
--------------------------------------------------------------------------------

  Final Cartesian lattice vectors (Angstroms) :

        6.312814    0.000000    0.000000
        0.000000    8.766841    0.000000
        0.000000    0.000000    6.203489


  Final cell parameters and derivatives :

--------------------------------------------------------------------------------
       a            6.312814 Angstrom     dE/de1(xx)     0.000217 eV/strain
       b            8.766841 Angstrom     dE/de2(yy)     0.000386 eV/strain
       c            6.203489 Angstrom     dE/de3(zz)     0.000211 eV/strain
       alpha       90.000000 Degrees      dE/de4(yz)     0.000000 eV/strain
       beta        90.000000 Degrees      dE/de5(xz)     0.000000 eV/strain
       gamma       90.000000 Degrees      dE/de6(xy)     0.000000 eV/strain
--------------------------------------------------------------------------------

  Primitive cell volume =           343.322411 Angs**3

  Density of cell =      2.634676 g/cm**3

  Non-primitive cell volume =           343.322411 Angs**3


  Final internal derivatives :

--------------------------------------------------------------------------------
   No.  Atomic          a             b             c           Radius
        Label          (eV)          (eV)          (eV)        (eV/Angs)
--------------------------------------------------------------------------------
      1 K     c       0.000000      0.000000      0.000000      0.000000
      2 Ca    c       0.000000      0.000000      0.000000      0.000000
      3 F     c       0.000000      0.000000      0.000000      0.000000
      4 F     c       0.000000      0.000000      0.000000      0.000000
      5 F     s       0.000000      0.000000      0.000000      0.000000
      6 F     s       0.000000      0.000000      0.000000      0.000000
--------------------------------------------------------------------------------
  Maximum abs         0.000000      0.000000      0.000000      0.000000
--------------------------------------------------------------------------------


  Born effective charge tensors : 

-------------------------------------------------------------------------------
  Atom             x           y             z
-------------------------------------------------------------------------------
   1 K     x       0.5070      0.0000     -0.0318
           y       0.0000      0.5360      0.0000
           z      -0.0306      0.0000      0.4996
-------------------------------------------------------------------------------
   2 Ca    x       1.4430      0.0065     -0.0161
           y      -0.0006      1.4184     -0.0080
           z       0.0040      0.0158      1.4439
-------------------------------------------------------------------------------
   3 F     x      -0.5964      0.0000      0.0190
           y       0.0000     -0.7417      0.0000
           z       0.0268      0.0000     -0.5788
-------------------------------------------------------------------------------
   4 F     x      -0.6768      0.0165     -0.0786
           y       0.0191     -0.6064     -0.0136
           z      -0.0774     -0.0133     -0.6824
-------------------------------------------------------------------------------




  Elastic Constant Matrix: (Units=GPa)

-------------------------------------------------------------------------------
  Indices      1         2         3         4         5         6    
-------------------------------------------------------------------------------
       1     51.2533   22.1820   27.3662    0.0000    0.0000    0.0000
       2     22.1820   56.7773   25.4369    0.0000    0.0000    0.0000
       3     27.3662   25.4369   51.2166    0.0000    0.0000    0.0000
       4      0.0000    0.0000    0.0000   14.7345    0.0000    0.0000
       5      0.0000    0.0000    0.0000    0.0000   14.9087    0.0000
       6      0.0000    0.0000    0.0000    0.0000    0.0000   17.8497
-------------------------------------------------------------------------------


  Elastic Compliance Matrix: (Units=1/GPa)

-------------------------------------------------------------------------------
  Indices      1         2         3         4         5         6    
-------------------------------------------------------------------------------
       1    0.028605 -0.005567 -0.012520  0.000000  0.000000  0.000000
       2   -0.005567  0.023736 -0.008814  0.000000  0.000000  0.000000
       3   -0.012520 -0.008814  0.030592  0.000000  0.000000  0.000000
       4    0.000000  0.000000  0.000000  0.067868  0.000000  0.000000
       5    0.000000  0.000000  0.000000  0.000000  0.067075  0.000000
       6    0.000000  0.000000  0.000000  0.000000  0.000000  0.056023
-------------------------------------------------------------------------------

  Mechanical properties :

-------------------------------------------------------------------------------
  Convention :                    Reuss         Voigt         Hill
-------------------------------------------------------------------------------
  Bulk  Modulus (GPa)     =      34.32621      34.35749      34.34185
  Shear Modulus (GPa)     =      14.81869      15.11604      14.96736
-------------------------------------------------------------------------------
  Velocity S-wave (km/s)  =       2.37160       2.39528       2.38347
  Velocity P-wave (km/s)  =       4.53078       4.54866       4.53973
-------------------------------------------------------------------------------
  Compressibility (1/GPa) =    0.02913226
-------------------------------------------------------------------------------
  Stress axis :                     x             y             z
-------------------------------------------------------------------------------
  Youngs Moduli (GPa)     =      34.95916      42.12929      32.68808
-------------------------------------------------------------------------------
  Poissons Ratio (x)      =                     0.23451       0.40924
  Poissons Ratio (y)      =       0.19460                     0.28813
  Poissons Ratio (z)      =       0.43767       0.37135
-------------------------------------------------------------------------------


  Piezoelectric Strain Matrix: (Units=C/m**2)

-------------------------------------------------------------------------------
  Indices      1         2         3         4         5         6    
-------------------------------------------------------------------------------
       x     0.00000   0.00000   0.00000   0.00000   0.00000   0.00000
       y     0.00000   0.00000   0.00000   0.00000   0.00000   0.00000
       z     0.00000   0.00000   0.00000   0.00000   0.00000   0.00000
-------------------------------------------------------------------------------


  Piezoelectric Stress Matrix: (Units=10**-11 C/N)

-------------------------------------------------------------------------------
  Indices      1         2         3         4         5         6    
-------------------------------------------------------------------------------
       x     0.00000   0.00000   0.00000   0.00000   0.00000   0.00000
       y     0.00000   0.00000   0.00000   0.00000   0.00000   0.00000
       z     0.00000   0.00000   0.00000   0.00000   0.00000   0.00000
-------------------------------------------------------------------------------


  Static dielectric constant tensor : 

-------------------------------------------------------------------------------
              x         y         z
-------------------------------------------------------------------------------
       x     3.33668   0.00000   0.00000
       y     0.00000   3.32747   0.00000
       z     0.00000   0.00000   3.14106
--------------------------------------------------------------------------------

  High frequency dielectric constant tensor : 

-------------------------------------------------------------------------------
              x         y         z
-------------------------------------------------------------------------------
       x     1.48423   0.00000   0.00000
       y     0.00000   1.48521   0.00000
       z     0.00000   0.00000   1.48266
-------------------------------------------------------------------------------

  Static refractive indices : 

-------------------------------------------------------------------------------
    1 =    1.77230      2 =    1.82413      3 =    1.82666
-------------------------------------------------------------------------------

  High frequency refractive indices : 

-------------------------------------------------------------------------------
    1 =    1.21765      2 =    1.21829      3 =    1.21869
-------------------------------------------------------------------------------


  Time to end of optimisation =       0.0379 seconds


  Peak dynamic memory used =       0.73 MB 


  Timing analysis for GULP :

--------------------------------------------------------------------------------
  Task / Subroutine                                          Time (Seconds)
--------------------------------------------------------------------------------
  Calculation of reciprocal space energy and derivatives          0.0025
  Calculation of reciprocal space energy using symmetry           0.0024
  Calculation of real space energy and derivatives                0.0130
  Calculation of real space energy using symmetry                 0.0155
  Symmetry generation of equivalent positions                     0.0003
--------------------------------------------------------------------------------
  Total CPU time                                                  0.0380
--------------------------------------------------------------------------------


  CIF file written as perov.cif                                               


  Job Finished at 09:35.57  6th April      2017                               

