********************************************************************************
*                       GENERAL UTILITY LATTICE PROGRAM                        *
*                                 Julian Gale                                  *
*                      Nanochemistry Research Institute                        *
*                           Department of Chemistry                            *
*                    Curtin University, Western Australia                      *
********************************************************************************
* Version = 4.3.2 * Last modified =  3rd March 2015                            *
********************************************************************************
*  optimise     - perform optimisation run                                     *
*  cell_only    - only optimise unit cell                                      *
*  property     - calculate properties for final geometry                      *
********************************************************************************

  Job Started  at 09:36.00  6th April      2017                               

  Number of CPUs =     1


  Total number of configurations input =   1

********************************************************************************
*  Input for Configuration =   1                                               *
********************************************************************************

  Formula = K4Ca4F12                                                    

  Number of irreducible atoms/shells =       6


  Total number atoms/shells =      32

  Dimensionality = 3               :  Bulk   


  Symmetry :

  Crystal family                   :  Orthorhombic
  Crystal class  (Groth - 1921)    :  Orthorhombic Bipyramidal             

  Space group (centrosymmetric)    :  P N M A         

  Patterson group                  :  P m m m  

  Cartesian lattice vectors (Angstroms) :

        6.223500    0.000000    0.000000
        0.000000    8.710300    0.000000
        0.000000    0.000000    6.118000

  Cell parameters (Angstroms/Degrees):

  a =       6.2235    alpha =  90.0000
  b =       8.7103    beta  =  90.0000
  c =       6.1180    gamma =  90.0000

  Initial cell volume =         331.647921 Angs**3

  Temperature of configuration =  0.000     K 

  Pressure of configuration =         0.000 GPa 

  Fractional coordinates of asymmetric unit :

--------------------------------------------------------------------------------
   No.  Atomic       x           y          z         Charge      Occupancy
        Label      (Frac)      (Frac)     (Frac)        (e)         (Frac)  
--------------------------------------------------------------------------------
      1 K     c    0.042000    0.250000    0.490600     1.00000    1.000000    
      2 Ca    c    0.000000    0.000000    0.000000     2.00000    1.000000    
      3 F     c    0.471500    0.250000    0.581200     0.37800    1.000000    
      4 F     c    0.291600    0.040400    0.206800     0.37800    1.000000    
      5 F     s    0.471500    0.250000    0.581200    -1.37800    1.000000    
      6 F     s    0.291600    0.040400    0.206800    -1.37800    1.000000    
--------------------------------------------------------------------------------



********************************************************************************
*  General input information                                                   *
********************************************************************************

  Species output for all configurations : 

--------------------------------------------------------------------------------
  Species    Type    Atomic    Atomic    Charge       Radii (Angs)     Library
                     Number     Mass       (e)     Cova   Ionic  VDW   Symbol
--------------------------------------------------------------------------------
    K        Core       19      39.10   1.000000   1.330  0.000  2.800          
    Ca       Core       20      40.08   2.000000   0.990  0.000  2.750          
    F        Core        9      19.00   0.378000   0.710  0.000  1.300          
    F        Shell       9       0.00  -1.378000   0.710  0.000  1.300          
--------------------------------------------------------------------------------


  Lattice summation method               =    Ewald          (3-D)
                                         =    Parry          (2-D)
                                         =    Saunders et al (1-D)
  Accuracy factor for lattice sums       =   12.000


  Time limit = Infinity

  Maximum range for interatomic potentials =    100000.000000 Angstroms

  General interatomic potentials :

--------------------------------------------------------------------------------
Atom  Types   Potential         A         B         C         D     Cutoffs(Ang)
  1     2                                                            Min    Max 
--------------------------------------------------------------------------------
K    c K    c Buckingham    0.219E+04 0.192      0.00      0.00     0.000 10.000
Ca   c F    s Buckingham    0.148E+04 0.266      0.00      0.00     0.000 10.000
F    s F    s Buckingham     912.     0.271      13.8      0.00     0.000 10.000
K    c F    s Buckingham    0.352E+04 0.267      0.00      0.00     0.000 10.000
F    c F    s Spring (c-s)   24.3      0.00      0.00      0.00     0.000  0.800
--------------------------------------------------------------------------------

********************************************************************************
*  Output for configuration   1                                                *
********************************************************************************


  Components of energy : 

--------------------------------------------------------------------------------
  Interatomic potentials     =          10.66009013 eV
  Monopole - monopole (real) =         -72.72185602 eV
  Monopole - monopole (recip)=         -88.81546349 eV
  Monopole - monopole (total)=        -161.53731951 eV
--------------------------------------------------------------------------------
  Total lattice energy       =        -150.87722938 eV
--------------------------------------------------------------------------------
  Total lattice energy       =          -14557.3463 kJ/(mole unit cells)
--------------------------------------------------------------------------------


  Number of variables =        3

  Maximum number of calculations  =          1000
  Maximum Hessian update interval =            10
  Maximum step size               =   1.000000000
  Maximum parameter tolerance     =   0.000010000
  Maximum function  tolerance     =   0.000010000
  Maximum gradient  tolerance     =   0.001000000
  Maximum gradient  component     =   0.010000000

  Symmetry constrained optimisation

  Symmetry used for second derivatives

  Cell parameters to be optimised using strains

  Newton-Raphson optimiser to be used

  BFGS hessian update to be used

  Start of bulk optimisation :

  Cycle:      0 Energy:      -150.877229  Gnorm:     11.938427  CPU:    0.007
  ** Hessian calculated **
  Cycle:      1 Energy:      -153.114028  Gnorm:      3.032659  CPU:    0.013
  Cycle:      2 Energy:      -153.198236  Gnorm:      0.999740  CPU:    0.019
  Cycle:      3 Energy:      -153.213029  Gnorm:      0.345785  CPU:    0.025
  Cycle:      4 Energy:      -153.214803  Gnorm:      0.005363  CPU:    0.030


  **** Optimisation achieved ****


  Final energy =    -153.21480361 eV
  Final Gnorm  =       0.00029908

  Components of energy : 

--------------------------------------------------------------------------------
  Interatomic potentials     =          19.82318377 eV
  Monopole - monopole (real) =         -77.89591409 eV
  Monopole - monopole (recip)=         -95.14207329 eV
  Monopole - monopole (total)=        -173.03798738 eV
--------------------------------------------------------------------------------
  Total lattice energy       =        -153.21480361 eV
--------------------------------------------------------------------------------
  Total lattice energy       =          -14782.8864 kJ/(mole unit cells)
--------------------------------------------------------------------------------

  Final asymmetric unit coordinates :

--------------------------------------------------------------------------------
   No.  Atomic        x           y           z         Radius
        Label       (Frac)      (Frac)      (Frac)       (Angs) 
--------------------------------------------------------------------------------
     1  K     c     0.042000    0.250000    0.490600    0.000000
     2  Ca    c     0.000000    0.000000    0.000000    0.000000
     3  F     c     0.471500    0.250000    0.581200    0.000000
     4  F     c     0.291600    0.040400    0.206800    0.000000
     5  F     s     0.471500    0.250000    0.581200    0.000000
     6  F     s     0.291600    0.040400    0.206800    0.000000
--------------------------------------------------------------------------------

  Final Cartesian lattice vectors (Angstroms) :

        5.829259    0.000000    0.000000
        0.000000    8.086850    0.000000
        0.000000    0.000000    5.723080


  Final cell parameters and derivatives :

--------------------------------------------------------------------------------
       a            5.829259 Angstrom     dE/de1(xx)     0.000129 eV/strain
       b            8.086850 Angstrom     dE/de2(yy)     0.000847 eV/strain
       c            5.723080 Angstrom     dE/de3(zz)     0.000267 eV/strain
       alpha       90.000000 Degrees      dE/de4(yz)     0.000000 eV/strain
       beta        90.000000 Degrees      dE/de5(xz)     0.000000 eV/strain
       gamma       90.000000 Degrees      dE/de6(xy)     0.000000 eV/strain
--------------------------------------------------------------------------------

  Primitive cell volume =           269.787954 Angs**3

  Density of cell =      3.352793 g/cm**3

  Non-primitive cell volume =           269.787954 Angs**3


  Final internal derivatives :

--------------------------------------------------------------------------------
   No.  Atomic          a             b             c           Radius
        Label          (eV)          (eV)          (eV)        (eV/Angs)
--------------------------------------------------------------------------------
      1 K     c       0.000000      0.000000      0.000000      0.000000
      2 Ca    c       0.000000      0.000000      0.000000      0.000000
      3 F     c       0.000000      0.000000      0.000000      0.000000
      4 F     c       0.000000      0.000000      0.000000      0.000000
      5 F     s       0.000000      0.000000      0.000000      0.000000
      6 F     s       0.000000      0.000000      0.000000      0.000000
--------------------------------------------------------------------------------
  Maximum abs         0.000000      0.000000      0.000000      0.000000
--------------------------------------------------------------------------------


  Born effective charge tensors : 

-------------------------------------------------------------------------------
  Atom             x           y             z
-------------------------------------------------------------------------------
   1 K     x       0.8651      0.0000     -0.0457
           y       0.0000      0.9105      0.0000
           z      -0.0461      0.0000      0.8545
-------------------------------------------------------------------------------
   2 Ca    x       1.7897      0.0114     -0.0269
           y      -0.0011      1.7529     -0.0163
           z       0.0081      0.0268      1.7907
-------------------------------------------------------------------------------
   3 F     x      -0.8091      0.0000      0.0243
           y       0.0000     -1.0142      0.0000
           z       0.0388      0.0000     -0.7857
-------------------------------------------------------------------------------
   4 F     x      -0.9229      0.0228     -0.1094
           y       0.0281     -0.8246     -0.0213
           z      -0.1074     -0.0211     -0.9298
-------------------------------------------------------------------------------




  Elastic Constant Matrix: (Units=GPa)

-------------------------------------------------------------------------------
  Indices      1         2         3         4         5         6    
-------------------------------------------------------------------------------
       1    116.5474   51.8366   51.7964    0.0000    0.0000    0.0000
       2     51.8366  120.8725   57.8998    0.0000    0.0000    0.0000
       3     51.7964   57.8998  122.6554    0.0000    0.0000    0.0000
       4      0.0000    0.0000    0.0000   40.0909    0.0000    0.0000
       5      0.0000    0.0000    0.0000    0.0000   29.4551    0.0000
       6      0.0000    0.0000    0.0000    0.0000    0.0000   46.4512
-------------------------------------------------------------------------------


  Elastic Compliance Matrix: (Units=1/GPa)

-------------------------------------------------------------------------------
  Indices      1         2         3         4         5         6    
-------------------------------------------------------------------------------
       1    0.011540 -0.003379 -0.003278  0.000000  0.000000  0.000000
       2   -0.003379  0.011680 -0.004087  0.000000  0.000000  0.000000
       3   -0.003278 -0.004087  0.011466  0.000000  0.000000  0.000000
       4    0.000000  0.000000  0.000000  0.024943  0.000000  0.000000
       5    0.000000  0.000000  0.000000  0.000000  0.033950  0.000000
       6    0.000000  0.000000  0.000000  0.000000  0.000000  0.021528
-------------------------------------------------------------------------------

  Mechanical properties :

-------------------------------------------------------------------------------
  Convention :                    Reuss         Voigt         Hill
-------------------------------------------------------------------------------
  Bulk  Modulus (GPa)     =      75.76414      75.90456      75.83435
  Shear Modulus (GPa)     =      35.46251      36.43560      35.94905
-------------------------------------------------------------------------------
  Velocity S-wave (km/s)  =       3.25223       3.29655       3.27446
  Velocity P-wave (km/s)  =       6.05805       6.09334       6.07572
-------------------------------------------------------------------------------
  Compressibility (1/GPa) =    0.01319886
-------------------------------------------------------------------------------
  Stress axis :                     x             y             z
-------------------------------------------------------------------------------
  Youngs Moduli (GPa)     =      86.65634      85.61897      87.21080
-------------------------------------------------------------------------------
  Poissons Ratio (x)      =                     0.28927       0.28591
  Poissons Ratio (y)      =       0.29277                     0.35640
  Poissons Ratio (z)      =       0.28409       0.34990
-------------------------------------------------------------------------------


  Piezoelectric Strain Matrix: (Units=C/m**2)

-------------------------------------------------------------------------------
  Indices      1         2         3         4         5         6    
-------------------------------------------------------------------------------
       x     0.00000   0.00000   0.00000   0.00000   0.00000   0.00000
       y     0.00000   0.00000   0.00000   0.00000   0.00000   0.00000
       z     0.00000   0.00000   0.00000   0.00000   0.00000   0.00000
-------------------------------------------------------------------------------


  Piezoelectric Stress Matrix: (Units=10**-11 C/N)

-------------------------------------------------------------------------------
  Indices      1         2         3         4         5         6    
-------------------------------------------------------------------------------
       x     0.00000   0.00000   0.00000   0.00000   0.00000   0.00000
       y     0.00000   0.00000   0.00000   0.00000   0.00000   0.00000
       z     0.00000   0.00000   0.00000   0.00000   0.00000   0.00000
-------------------------------------------------------------------------------


  Static dielectric constant tensor : 

-------------------------------------------------------------------------------
              x         y         z
-------------------------------------------------------------------------------
       x     4.03137   0.00000   0.00000
       y     0.00000   4.07947   0.00000
       z     0.00000   0.00000   3.81927
--------------------------------------------------------------------------------

  High frequency dielectric constant tensor : 

-------------------------------------------------------------------------------
              x         y         z
-------------------------------------------------------------------------------
       x     1.61160   0.00000   0.00000
       y     0.00000   1.61339   0.00000
       z     0.00000   0.00000   1.60938
-------------------------------------------------------------------------------

  Static refractive indices : 

-------------------------------------------------------------------------------
    1 =    1.95430      2 =    2.00783      3 =    2.01977
-------------------------------------------------------------------------------

  High frequency refractive indices : 

-------------------------------------------------------------------------------
    1 =    1.26861      2 =    1.26949      3 =    1.27019
-------------------------------------------------------------------------------


  Time to end of optimisation =       0.0525 seconds


  Peak dynamic memory used =       0.73 MB 


  Timing analysis for GULP :

--------------------------------------------------------------------------------
  Task / Subroutine                                          Time (Seconds)
--------------------------------------------------------------------------------
  Calculation of reciprocal space energy and derivatives          0.0026
  Calculation of reciprocal space energy using symmetry           0.0042
  Calculation of real space energy and derivatives                0.0125
  Calculation of real space energy using symmetry                 0.0285
  Symmetry generation of equivalent positions                     0.0005
--------------------------------------------------------------------------------
  Total CPU time                                                  0.0525
--------------------------------------------------------------------------------


  CIF file written as perov.cif                                               


  Job Finished at 09:36.00  6th April      2017                               

