********************************************************************************
*                       GENERAL UTILITY LATTICE PROGRAM                        *
*                                 Julian Gale                                  *
*                      Nanochemistry Research Institute                        *
*                           Department of Chemistry                            *
*                    Curtin University, Western Australia                      *
********************************************************************************
* Version = 4.3.2 * Last modified =  3rd March 2015                            *
********************************************************************************
*  optimise     - perform optimisation run                                     *
*  cell_only    - only optimise unit cell                                      *
*  property     - calculate properties for final geometry                      *
********************************************************************************

  Job Started  at 09:36.02  6th April      2017                               

  Number of CPUs =     1


  Total number of configurations input =   1

********************************************************************************
*  Input for Configuration =   1                                               *
********************************************************************************

  Formula = K4Ca4F12                                                    

  Number of irreducible atoms/shells =       6


  Total number atoms/shells =      32

  Dimensionality = 3               :  Bulk   


  Symmetry :

  Crystal family                   :  Orthorhombic
  Crystal class  (Groth - 1921)    :  Orthorhombic Bipyramidal             

  Space group (centrosymmetric)    :  P N M A         

  Patterson group                  :  P m m m  

  Cartesian lattice vectors (Angstroms) :

        6.223500    0.000000    0.000000
        0.000000    8.710300    0.000000
        0.000000    0.000000    6.118000

  Cell parameters (Angstroms/Degrees):

  a =       6.2235    alpha =  90.0000
  b =       8.7103    beta  =  90.0000
  c =       6.1180    gamma =  90.0000

  Initial cell volume =         331.647921 Angs**3

  Temperature of configuration =  0.000     K 

  Pressure of configuration =         0.000 GPa 

  Fractional coordinates of asymmetric unit :

--------------------------------------------------------------------------------
   No.  Atomic       x           y          z         Charge      Occupancy
        Label      (Frac)      (Frac)     (Frac)        (e)         (Frac)  
--------------------------------------------------------------------------------
      1 K     c    0.042000    0.250000    0.490600     1.30000    1.000000    
      2 Ca    c    0.000000    0.000000    0.000000     1.60000    1.000000    
      3 F     c    0.471500    0.250000    0.581200     0.37800    1.000000    
      4 F     c    0.291600    0.040400    0.206800     0.37800    1.000000    
      5 F     s    0.471500    0.250000    0.581200    -1.34467    1.000000    
      6 F     s    0.291600    0.040400    0.206800    -1.34467    1.000000    
--------------------------------------------------------------------------------



********************************************************************************
*  General input information                                                   *
********************************************************************************

  Species output for all configurations : 

--------------------------------------------------------------------------------
  Species    Type    Atomic    Atomic    Charge       Radii (Angs)     Library
                     Number     Mass       (e)     Cova   Ionic  VDW   Symbol
--------------------------------------------------------------------------------
    K        Core       19      39.10   1.300000   1.330  0.000  2.800          
    Ca       Core       20      40.08   1.600000   0.990  0.000  2.750          
    F        Core        9      19.00   0.378000   0.710  0.000  1.300          
    F        Shell       9       0.00  -1.344667   0.710  0.000  1.300          
--------------------------------------------------------------------------------


  Lattice summation method               =    Ewald          (3-D)
                                         =    Parry          (2-D)
                                         =    Saunders et al (1-D)
  Accuracy factor for lattice sums       =   12.000


  Time limit = Infinity

  Maximum range for interatomic potentials =    100000.000000 Angstroms

  General interatomic potentials :

--------------------------------------------------------------------------------
Atom  Types   Potential         A         B         C         D     Cutoffs(Ang)
  1     2                                                            Min    Max 
--------------------------------------------------------------------------------
K    c K    c Buckingham    0.219E+04 0.192      0.00      0.00     0.000 10.000
Ca   c F    s Buckingham    0.148E+04 0.266      0.00      0.00     0.000 10.000
F    s F    s Buckingham     912.     0.271      13.8      0.00     0.000 10.000
K    c F    s Buckingham    0.352E+04 0.267      0.00      0.00     0.000 10.000
F    c F    s Spring (c-s)   23.2      0.00      0.00      0.00     0.000  0.800
--------------------------------------------------------------------------------

********************************************************************************
*  Output for configuration   1                                                *
********************************************************************************


  Components of energy : 

--------------------------------------------------------------------------------
  Interatomic potentials     =          10.66009013 eV
  Monopole - monopole (real) =         -62.47936064 eV
  Monopole - monopole (recip)=         -78.29126999 eV
  Monopole - monopole (total)=        -140.77063063 eV
--------------------------------------------------------------------------------
  Total lattice energy       =        -130.11054050 eV
--------------------------------------------------------------------------------
  Total lattice energy       =          -12553.6782 kJ/(mole unit cells)
--------------------------------------------------------------------------------


  Number of variables =        3

  Maximum number of calculations  =          1000
  Maximum Hessian update interval =            10
  Maximum step size               =   1.000000000
  Maximum parameter tolerance     =   0.000010000
  Maximum function  tolerance     =   0.000010000
  Maximum gradient  tolerance     =   0.001000000
  Maximum gradient  component     =   0.010000000

  Symmetry constrained optimisation

  Symmetry used for second derivatives

  Cell parameters to be optimised using strains

  Newton-Raphson optimiser to be used

  BFGS hessian update to be used

  Start of bulk optimisation :

  Cycle:      0 Energy:      -130.110540  Gnorm:      7.942773  CPU:    0.007
  ** Hessian calculated **
  Cycle:      1 Energy:      -131.160779  Gnorm:      1.404581  CPU:    0.013
  Cycle:      2 Energy:      -131.184425  Gnorm:      0.331601  CPU:    0.019
  Cycle:      3 Energy:      -131.186206  Gnorm:      0.042729  CPU:    0.025
  Cycle:      4 Energy:      -131.186245  Gnorm:      0.000250  CPU:    0.032


  **** Optimisation achieved ****


  Final energy =    -131.18624459 eV
  Final Gnorm  =       0.00000388

  Components of energy : 

--------------------------------------------------------------------------------
  Interatomic potentials     =          16.60840076 eV
  Monopole - monopole (real) =         -65.59427930 eV
  Monopole - monopole (recip)=         -82.20036606 eV
  Monopole - monopole (total)=        -147.79464536 eV
--------------------------------------------------------------------------------
  Total lattice energy       =        -131.18624459 eV
--------------------------------------------------------------------------------
  Total lattice energy       =          -12657.4672 kJ/(mole unit cells)
--------------------------------------------------------------------------------

  Final asymmetric unit coordinates :

--------------------------------------------------------------------------------
   No.  Atomic        x           y           z         Radius
        Label       (Frac)      (Frac)      (Frac)       (Angs) 
--------------------------------------------------------------------------------
     1  K     c     0.042000    0.250000    0.490600    0.000000
     2  Ca    c     0.000000    0.000000    0.000000    0.000000
     3  F     c     0.471500    0.250000    0.581200    0.000000
     4  F     c     0.291600    0.040400    0.206800    0.000000
     5  F     s     0.471500    0.250000    0.581200    0.000000
     6  F     s     0.291600    0.040400    0.206800    0.000000
--------------------------------------------------------------------------------

  Final Cartesian lattice vectors (Angstroms) :

        5.949302    0.000000    0.000000
        0.000000    8.253712    0.000000
        0.000000    0.000000    5.835549


  Final cell parameters and derivatives :

--------------------------------------------------------------------------------
       a            5.949302 Angstrom     dE/de1(xx)    -0.000008 eV/strain
       b            8.253712 Angstrom     dE/de2(yy)    -0.000008 eV/strain
       c            5.835549 Angstrom     dE/de3(zz)    -0.000002 eV/strain
       alpha       90.000000 Degrees      dE/de4(yz)     0.000000 eV/strain
       beta        90.000000 Degrees      dE/de5(xz)     0.000000 eV/strain
       gamma       90.000000 Degrees      dE/de6(xy)     0.000000 eV/strain
--------------------------------------------------------------------------------

  Primitive cell volume =           286.547756 Angs**3

  Density of cell =      3.156693 g/cm**3

  Non-primitive cell volume =           286.547756 Angs**3


  Final internal derivatives :

--------------------------------------------------------------------------------
   No.  Atomic          a             b             c           Radius
        Label          (eV)          (eV)          (eV)        (eV/Angs)
--------------------------------------------------------------------------------
      1 K     c       0.000000      0.000000      0.000000      0.000000
      2 Ca    c       0.000000      0.000000      0.000000      0.000000
      3 F     c       0.000000      0.000000      0.000000      0.000000
      4 F     c       0.000000      0.000000      0.000000      0.000000
      5 F     s       0.000000      0.000000      0.000000      0.000000
      6 F     s       0.000000      0.000000      0.000000      0.000000
--------------------------------------------------------------------------------
  Maximum abs         0.000000      0.000000      0.000000      0.000000
--------------------------------------------------------------------------------


  Born effective charge tensors : 

-------------------------------------------------------------------------------
  Atom             x           y             z
-------------------------------------------------------------------------------
   1 K     x       1.2605      0.0000     -0.0299
           y       0.0000      1.2998      0.0000
           z      -0.0334      0.0000      1.2506
-------------------------------------------------------------------------------
   2 Ca    x       1.3313      0.0127     -0.0063
           y       0.0070      1.3020      0.0021
           z      -0.0022      0.0089      1.3304
-------------------------------------------------------------------------------
   3 F     x      -0.8560      0.0000      0.0122
           y       0.0000     -0.8582      0.0000
           z       0.0159      0.0000     -0.8340
-------------------------------------------------------------------------------
   4 F     x      -0.8679      0.0198     -0.0048
           y       0.0264     -0.8718     -0.0285
           z      -0.0034     -0.0301     -0.8735
-------------------------------------------------------------------------------




  Elastic Constant Matrix: (Units=GPa)

-------------------------------------------------------------------------------
  Indices      1         2         3         4         5         6    
-------------------------------------------------------------------------------
       1     96.0379   40.1853   46.2694    0.0000    0.0000    0.0000
       2     40.1853  106.8946   43.2893    0.0000    0.0000    0.0000
       3     46.2694   43.2893  101.5881    0.0000    0.0000    0.0000
       4      0.0000    0.0000    0.0000   30.6763    0.0000    0.0000
       5      0.0000    0.0000    0.0000    0.0000   31.0689    0.0000
       6      0.0000    0.0000    0.0000    0.0000    0.0000   35.1254
-------------------------------------------------------------------------------


  Elastic Compliance Matrix: (Units=1/GPa)

-------------------------------------------------------------------------------
  Indices      1         2         3         4         5         6    
-------------------------------------------------------------------------------
       1    0.014240 -0.003295 -0.005081  0.000000  0.000000  0.000000
       2   -0.003295  0.012069 -0.003642  0.000000  0.000000  0.000000
       3   -0.005081 -0.003642  0.013710  0.000000  0.000000  0.000000
       4    0.000000  0.000000  0.000000  0.032598  0.000000  0.000000
       5    0.000000  0.000000  0.000000  0.000000  0.032187  0.000000
       6    0.000000  0.000000  0.000000  0.000000  0.000000  0.028469
-------------------------------------------------------------------------------

  Mechanical properties :

-------------------------------------------------------------------------------
  Convention :                    Reuss         Voigt         Hill
-------------------------------------------------------------------------------
  Bulk  Modulus (GPa)     =      62.57408      62.66763      62.62086
  Shear Modulus (GPa)     =      30.74338      31.02589      30.88464
-------------------------------------------------------------------------------
  Velocity S-wave (km/s)  =       3.12075       3.13506       3.12792
  Velocity P-wave (km/s)  =       5.72784       5.74083       5.73434
-------------------------------------------------------------------------------
  Compressibility (1/GPa) =    0.01598106
-------------------------------------------------------------------------------
  Stress axis :                     x             y             z
-------------------------------------------------------------------------------
  Youngs Moduli (GPa)     =      70.22706      82.85895      72.93984
-------------------------------------------------------------------------------
  Poissons Ratio (x)      =                     0.27305       0.37063
  Poissons Ratio (y)      =       0.23142                     0.26564
  Poissons Ratio (z)      =       0.35685       0.30176
-------------------------------------------------------------------------------


  Piezoelectric Strain Matrix: (Units=C/m**2)

-------------------------------------------------------------------------------
  Indices      1         2         3         4         5         6    
-------------------------------------------------------------------------------
       x     0.00000   0.00000   0.00000   0.00000   0.00000   0.00000
       y     0.00000   0.00000   0.00000   0.00000   0.00000   0.00000
       z     0.00000   0.00000   0.00000   0.00000   0.00000   0.00000
-------------------------------------------------------------------------------


  Piezoelectric Stress Matrix: (Units=10**-11 C/N)

-------------------------------------------------------------------------------
  Indices      1         2         3         4         5         6    
-------------------------------------------------------------------------------
       x     0.00000   0.00000   0.00000   0.00000   0.00000   0.00000
       y     0.00000   0.00000   0.00000   0.00000   0.00000   0.00000
       z     0.00000   0.00000   0.00000   0.00000   0.00000   0.00000
-------------------------------------------------------------------------------


  Static dielectric constant tensor : 

-------------------------------------------------------------------------------
              x         y         z
-------------------------------------------------------------------------------
       x     4.80736   0.00000   0.00000
       y     0.00000   6.25529   0.00000
       z     0.00000   0.00000   4.56610
--------------------------------------------------------------------------------

  High frequency dielectric constant tensor : 

-------------------------------------------------------------------------------
              x         y         z
-------------------------------------------------------------------------------
       x     1.57821   0.00000   0.00000
       y     0.00000   1.58016   0.00000
       z     0.00000   0.00000   1.57598
-------------------------------------------------------------------------------

  Static refractive indices : 

-------------------------------------------------------------------------------
    1 =    2.13684      2 =    2.19257      3 =    2.50106
-------------------------------------------------------------------------------

  High frequency refractive indices : 

-------------------------------------------------------------------------------
    1 =    1.25538      2 =    1.25627      3 =    1.25705
-------------------------------------------------------------------------------


  Time to end of optimisation =       0.0554 seconds


  Peak dynamic memory used =       0.73 MB 


  Timing analysis for GULP :

--------------------------------------------------------------------------------
  Task / Subroutine                                          Time (Seconds)
--------------------------------------------------------------------------------
  Calculation of reciprocal space energy and derivatives          0.0027
  Calculation of reciprocal space energy using symmetry           0.0046
  Calculation of real space energy and derivatives                0.0125
  Calculation of real space energy using symmetry                 0.0308
  Symmetry generation of equivalent positions                     0.0004
--------------------------------------------------------------------------------
  Total CPU time                                                  0.0555
--------------------------------------------------------------------------------


  CIF file written as perov.cif                                               


  Job Finished at 09:36.02  6th April      2017                               

