********************************************************************************
*                       GENERAL UTILITY LATTICE PROGRAM                        *
*                                 Julian Gale                                  *
*                      Nanochemistry Research Institute                        *
*                           Department of Chemistry                            *
*                    Curtin University, Western Australia                      *
********************************************************************************
* Version = 4.3.2 * Last modified =  3rd March 2015                            *
********************************************************************************
*  optimise     - perform optimisation run                                     *
*  cell_only    - only optimise unit cell                                      *
*  property     - calculate properties for final geometry                      *
********************************************************************************

  Job Started  at 09:35.59  6th April      2017                               

  Number of CPUs =     1


  Total number of configurations input =   1

********************************************************************************
*  Input for Configuration =   1                                               *
********************************************************************************

  Formula = K4Ca4F12                                                    

  Number of irreducible atoms/shells =       6


  Total number atoms/shells =      32

  Dimensionality = 3               :  Bulk   


  Symmetry :

  Crystal family                   :  Orthorhombic
  Crystal class  (Groth - 1921)    :  Orthorhombic Bipyramidal             

  Space group (centrosymmetric)    :  P N M A         

  Patterson group                  :  P m m m  

  Cartesian lattice vectors (Angstroms) :

        6.223500    0.000000    0.000000
        0.000000    8.710300    0.000000
        0.000000    0.000000    6.118000

  Cell parameters (Angstroms/Degrees):

  a =       6.2235    alpha =  90.0000
  b =       8.7103    beta  =  90.0000
  c =       6.1180    gamma =  90.0000

  Initial cell volume =         331.647921 Angs**3

  Temperature of configuration =  0.000     K 

  Pressure of configuration =         0.000 GPa 

  Fractional coordinates of asymmetric unit :

--------------------------------------------------------------------------------
   No.  Atomic       x           y          z         Charge      Occupancy
        Label      (Frac)      (Frac)     (Frac)        (e)         (Frac)  
--------------------------------------------------------------------------------
      1 K     c    0.042000    0.250000    0.490600     0.90000    1.000000    
      2 Ca    c    0.000000    0.000000    0.000000     1.80000    1.000000    
      3 F     c    0.471500    0.250000    0.581200     0.37800    1.000000    
      4 F     c    0.291600    0.040400    0.206800     0.37800    1.000000    
      5 F     s    0.471500    0.250000    0.581200    -1.27800    1.000000    
      6 F     s    0.291600    0.040400    0.206800    -1.27800    1.000000    
--------------------------------------------------------------------------------



********************************************************************************
*  General input information                                                   *
********************************************************************************

  Species output for all configurations : 

--------------------------------------------------------------------------------
  Species    Type    Atomic    Atomic    Charge       Radii (Angs)     Library
                     Number     Mass       (e)     Cova   Ionic  VDW   Symbol
--------------------------------------------------------------------------------
    K        Core       19      39.10   0.900000   1.330  0.000  2.800          
    Ca       Core       20      40.08   1.800000   0.990  0.000  2.750          
    F        Core        9      19.00   0.378000   0.710  0.000  1.300          
    F        Shell       9       0.00  -1.278000   0.710  0.000  1.300          
--------------------------------------------------------------------------------


  Lattice summation method               =    Ewald          (3-D)
                                         =    Parry          (2-D)
                                         =    Saunders et al (1-D)
  Accuracy factor for lattice sums       =   12.000


  Time limit = Infinity

  Maximum range for interatomic potentials =    100000.000000 Angstroms

  General interatomic potentials :

--------------------------------------------------------------------------------
Atom  Types   Potential         A         B         C         D     Cutoffs(Ang)
  1     2                                                            Min    Max 
--------------------------------------------------------------------------------
K    c K    c Buckingham    0.219E+04 0.192      0.00      0.00     0.000 10.000
Ca   c F    s Buckingham    0.148E+04 0.266      0.00      0.00     0.000 10.000
F    s F    s Buckingham     912.     0.271      13.8      0.00     0.000 10.000
K    c F    s Buckingham    0.352E+04 0.267      0.00      0.00     0.000 10.000
F    c F    s Spring (c-s)   20.9      0.00      0.00      0.00     0.000  0.800
--------------------------------------------------------------------------------

********************************************************************************
*  Output for configuration   1                                                *
********************************************************************************


  Components of energy : 

--------------------------------------------------------------------------------
  Interatomic potentials     =          10.66009013 eV
  Monopole - monopole (real) =         -58.90470338 eV
  Monopole - monopole (recip)=         -71.94052543 eV
  Monopole - monopole (total)=        -130.84522880 eV
--------------------------------------------------------------------------------
  Total lattice energy       =        -120.18513867 eV
--------------------------------------------------------------------------------
  Total lattice energy       =          -11596.0287 kJ/(mole unit cells)
--------------------------------------------------------------------------------


  Number of variables =        3

  Maximum number of calculations  =          1000
  Maximum Hessian update interval =            10
  Maximum step size               =   1.000000000
  Maximum parameter tolerance     =   0.000010000
  Maximum function  tolerance     =   0.000010000
  Maximum gradient  tolerance     =   0.001000000
  Maximum gradient  component     =   0.010000000

  Symmetry constrained optimisation

  Symmetry used for second derivatives

  Cell parameters to be optimised using strains

  Newton-Raphson optimiser to be used

  BFGS hessian update to be used

  Start of bulk optimisation :

  Cycle:      0 Energy:      -120.185139  Gnorm:      6.032476  CPU:    0.007
  ** Hessian calculated **
  Cycle:      1 Energy:      -120.809598  Gnorm:      0.814483  CPU:    0.013
  Cycle:      2 Energy:      -120.818618  Gnorm:      0.157836  CPU:    0.018
  Cycle:      3 Energy:      -120.819069  Gnorm:      0.020796  CPU:    0.026
  Cycle:      4 Energy:      -120.819079  Gnorm:      0.009456  CPU:    0.033


  **** Optimisation achieved ****


  Final energy =    -120.81908113 eV
  Final Gnorm  =       0.00006954

  Components of energy : 

--------------------------------------------------------------------------------
  Interatomic potentials     =          15.12177279 eV
  Monopole - monopole (real) =         -61.19603067 eV
  Monopole - monopole (recip)=         -74.74482325 eV
  Monopole - monopole (total)=        -135.94085392 eV
--------------------------------------------------------------------------------
  Total lattice energy       =        -120.81908113 eV
--------------------------------------------------------------------------------
  Total lattice energy       =          -11657.1944 kJ/(mole unit cells)
--------------------------------------------------------------------------------

  Final asymmetric unit coordinates :

--------------------------------------------------------------------------------
   No.  Atomic        x           y           z         Radius
        Label       (Frac)      (Frac)      (Frac)       (Angs) 
--------------------------------------------------------------------------------
     1  K     c     0.042000    0.250000    0.490600    0.000000
     2  Ca    c     0.000000    0.000000    0.000000    0.000000
     3  F     c     0.471500    0.250000    0.581200    0.000000
     4  F     c     0.291600    0.040400    0.206800    0.000000
     5  F     s     0.471500    0.250000    0.581200    0.000000
     6  F     s     0.291600    0.040400    0.206800    0.000000
--------------------------------------------------------------------------------

  Final Cartesian lattice vectors (Angstroms) :

        6.009094    0.000000    0.000000
        0.000000    8.339264    0.000000
        0.000000    0.000000    5.900862


  Final cell parameters and derivatives :

--------------------------------------------------------------------------------
       a            6.009094 Angstrom     dE/de1(xx)     0.000061 eV/strain
       b            8.339264 Angstrom     dE/de2(yy)     0.000190 eV/strain
       c            5.900862 Angstrom     dE/de3(zz)     0.000063 eV/strain
       alpha       90.000000 Degrees      dE/de4(yz)     0.000000 eV/strain
       beta        90.000000 Degrees      dE/de5(xz)     0.000000 eV/strain
       gamma       90.000000 Degrees      dE/de6(xy)     0.000000 eV/strain
--------------------------------------------------------------------------------

  Primitive cell volume =           295.700577 Angs**3

  Density of cell =      3.058984 g/cm**3

  Non-primitive cell volume =           295.700577 Angs**3


  Final internal derivatives :

--------------------------------------------------------------------------------
   No.  Atomic          a             b             c           Radius
        Label          (eV)          (eV)          (eV)        (eV/Angs)
--------------------------------------------------------------------------------
      1 K     c       0.000000      0.000000      0.000000      0.000000
      2 Ca    c       0.000000      0.000000      0.000000      0.000000
      3 F     c       0.000000      0.000000      0.000000      0.000000
      4 F     c       0.000000      0.000000      0.000000      0.000000
      5 F     s       0.000000      0.000000      0.000000      0.000000
      6 F     s       0.000000      0.000000      0.000000      0.000000
--------------------------------------------------------------------------------
  Maximum abs         0.000000      0.000000      0.000000      0.000000
--------------------------------------------------------------------------------


  Born effective charge tensors : 

-------------------------------------------------------------------------------
  Atom             x           y             z
-------------------------------------------------------------------------------
   1 K     x       0.7942      0.0000     -0.0377
           y       0.0000      0.8325      0.0000
           z      -0.0384      0.0000      0.7848
-------------------------------------------------------------------------------
   2 Ca    x       1.5984      0.0096     -0.0190
           y       0.0006      1.5672     -0.0095
           z       0.0044      0.0191      1.5991
-------------------------------------------------------------------------------
   3 F     x      -0.7403      0.0000      0.0208
           y       0.0000     -0.8921      0.0000
           z       0.0311      0.0000     -0.7192
-------------------------------------------------------------------------------
   4 F     x      -0.8261      0.0200     -0.0820
           y       0.0244     -0.7538     -0.0195
           z      -0.0805     -0.0195     -0.8324
-------------------------------------------------------------------------------




  Elastic Constant Matrix: (Units=GPa)

-------------------------------------------------------------------------------
  Indices      1         2         3         4         5         6    
-------------------------------------------------------------------------------
       1     86.2998   37.7381   40.6468    0.0000    0.0000    0.0000
       2     37.7381   91.7967   42.1610    0.0000    0.0000    0.0000
       3     40.6468   42.1610   89.5354    0.0000    0.0000    0.0000
       4      0.0000    0.0000    0.0000   28.0859    0.0000    0.0000
       5      0.0000    0.0000    0.0000    0.0000   23.4131    0.0000
       6      0.0000    0.0000    0.0000    0.0000    0.0000   32.8068
-------------------------------------------------------------------------------


  Elastic Compliance Matrix: (Units=1/GPa)

-------------------------------------------------------------------------------
  Indices      1         2         3         4         5         6    
-------------------------------------------------------------------------------
       1    0.015863 -0.004101 -0.005270  0.000000  0.000000  0.000000
       2   -0.004101  0.014960 -0.005183  0.000000  0.000000  0.000000
       3   -0.005270 -0.005183  0.016002  0.000000  0.000000  0.000000
       4    0.000000  0.000000  0.000000  0.035605  0.000000  0.000000
       5    0.000000  0.000000  0.000000  0.000000  0.042711  0.000000
       6    0.000000  0.000000  0.000000  0.000000  0.000000  0.030482
-------------------------------------------------------------------------------

  Mechanical properties :

-------------------------------------------------------------------------------
  Convention :                    Reuss         Voigt         Hill
-------------------------------------------------------------------------------
  Bulk  Modulus (GPa)     =      56.44318      56.52486      56.48402
  Shear Modulus (GPa)     =      26.22799      26.66689      26.44744
-------------------------------------------------------------------------------
  Velocity S-wave (km/s)  =       2.92815       2.95255       2.94038
  Velocity P-wave (km/s)  =       5.46660       5.48650       5.47656
-------------------------------------------------------------------------------
  Compressibility (1/GPa) =    0.01771693
-------------------------------------------------------------------------------
  Stress axis :                     x             y             z
-------------------------------------------------------------------------------
  Youngs Moduli (GPa)     =      63.03950      66.84567      62.49258
-------------------------------------------------------------------------------
  Poissons Ratio (x)      =                     0.27412       0.32936
  Poissons Ratio (y)      =       0.25851                     0.32388
  Poissons Ratio (z)      =       0.33225       0.34644
-------------------------------------------------------------------------------


  Piezoelectric Strain Matrix: (Units=C/m**2)

-------------------------------------------------------------------------------
  Indices      1         2         3         4         5         6    
-------------------------------------------------------------------------------
       x     0.00000   0.00000   0.00000   0.00000   0.00000   0.00000
       y     0.00000   0.00000   0.00000   0.00000   0.00000   0.00000
       z     0.00000   0.00000   0.00000   0.00000   0.00000   0.00000
-------------------------------------------------------------------------------


  Piezoelectric Stress Matrix: (Units=10**-11 C/N)

-------------------------------------------------------------------------------
  Indices      1         2         3         4         5         6    
-------------------------------------------------------------------------------
       x     0.00000   0.00000   0.00000   0.00000   0.00000   0.00000
       y     0.00000   0.00000   0.00000   0.00000   0.00000   0.00000
       z     0.00000   0.00000   0.00000   0.00000   0.00000   0.00000
-------------------------------------------------------------------------------


  Static dielectric constant tensor : 

-------------------------------------------------------------------------------
              x         y         z
-------------------------------------------------------------------------------
       x     3.78132   0.00000   0.00000
       y     0.00000   3.89328   0.00000
       z     0.00000   0.00000   3.56404
--------------------------------------------------------------------------------

  High frequency dielectric constant tensor : 

-------------------------------------------------------------------------------
              x         y         z
-------------------------------------------------------------------------------
       x     1.55929   0.00000   0.00000
       y     0.00000   1.56077   0.00000
       z     0.00000   0.00000   1.55731
-------------------------------------------------------------------------------

  Static refractive indices : 

-------------------------------------------------------------------------------
    1 =    1.88787      2 =    1.94456      3 =    1.97314
-------------------------------------------------------------------------------

  High frequency refractive indices : 

-------------------------------------------------------------------------------
    1 =    1.24792      2 =    1.24872      3 =    1.24931
-------------------------------------------------------------------------------


  Time to end of optimisation =       0.0574 seconds


  Peak dynamic memory used =       0.73 MB 


  Timing analysis for GULP :

--------------------------------------------------------------------------------
  Task / Subroutine                                          Time (Seconds)
--------------------------------------------------------------------------------
  Calculation of reciprocal space energy and derivatives          0.0026
  Calculation of reciprocal space energy using symmetry           0.0048
  Calculation of real space energy and derivatives                0.0137
  Calculation of real space energy using symmetry                 0.0316
  Symmetry generation of equivalent positions                     0.0004
--------------------------------------------------------------------------------
  Total CPU time                                                  0.0574
--------------------------------------------------------------------------------


  CIF file written as perov.cif                                               


  Job Finished at 09:35.59  6th April      2017                               

