********************************************************************************
*                       GENERAL UTILITY LATTICE PROGRAM                        *
*                                 Julian Gale                                  *
*                      Nanochemistry Research Institute                        *
*                           Department of Chemistry                            *
*                    Curtin University, Western Australia                      *
********************************************************************************
* Version = 4.3.2 * Last modified =  3rd March 2015                            *
********************************************************************************
*  optimise     - perform optimisation run                                     *
*  cell_only    - only optimise unit cell                                      *
*  property     - calculate properties for final geometry                      *
********************************************************************************

  Job Started  at 09:36.01  6th April      2017                               

  Number of CPUs =     1


  Total number of configurations input =   1

********************************************************************************
*  Input for Configuration =   1                                               *
********************************************************************************

  Formula = K4Ca4F12                                                    

  Number of irreducible atoms/shells =       6


  Total number atoms/shells =      32

  Dimensionality = 3               :  Bulk   


  Symmetry :

  Crystal family                   :  Orthorhombic
  Crystal class  (Groth - 1921)    :  Orthorhombic Bipyramidal             

  Space group (centrosymmetric)    :  P N M A         

  Patterson group                  :  P m m m  

  Cartesian lattice vectors (Angstroms) :

        6.223500    0.000000    0.000000
        0.000000    8.710300    0.000000
        0.000000    0.000000    6.118000

  Cell parameters (Angstroms/Degrees):

  a =       6.2235    alpha =  90.0000
  b =       8.7103    beta  =  90.0000
  c =       6.1180    gamma =  90.0000

  Initial cell volume =         331.647921 Angs**3

  Temperature of configuration =  0.000     K 

  Pressure of configuration =         0.000 GPa 

  Fractional coordinates of asymmetric unit :

--------------------------------------------------------------------------------
   No.  Atomic       x           y          z         Charge      Occupancy
        Label      (Frac)      (Frac)     (Frac)        (e)         (Frac)  
--------------------------------------------------------------------------------
      1 K     c    0.042000    0.250000    0.490600     1.20000    1.000000    
      2 Ca    c    0.000000    0.000000    0.000000     1.50000    1.000000    
      3 F     c    0.471500    0.250000    0.581200     0.37800    1.000000    
      4 F     c    0.291600    0.040400    0.206800     0.37800    1.000000    
      5 F     s    0.471500    0.250000    0.581200    -1.27800    1.000000    
      6 F     s    0.291600    0.040400    0.206800    -1.27800    1.000000    
--------------------------------------------------------------------------------



********************************************************************************
*  General input information                                                   *
********************************************************************************

  Species output for all configurations : 

--------------------------------------------------------------------------------
  Species    Type    Atomic    Atomic    Charge       Radii (Angs)     Library
                     Number     Mass       (e)     Cova   Ionic  VDW   Symbol
--------------------------------------------------------------------------------
    K        Core       19      39.10   1.200000   1.330  0.000  2.800          
    Ca       Core       20      40.08   1.500000   0.990  0.000  2.750          
    F        Core        9      19.00   0.378000   0.710  0.000  1.300          
    F        Shell       9       0.00  -1.278000   0.710  0.000  1.300          
--------------------------------------------------------------------------------


  Lattice summation method               =    Ewald          (3-D)
                                         =    Parry          (2-D)
                                         =    Saunders et al (1-D)
  Accuracy factor for lattice sums       =   12.000


  Time limit = Infinity

  Maximum range for interatomic potentials =    100000.000000 Angstroms

  General interatomic potentials :

--------------------------------------------------------------------------------
Atom  Types   Potential         A         B         C         D     Cutoffs(Ang)
  1     2                                                            Min    Max 
--------------------------------------------------------------------------------
K    c K    c Buckingham    0.219E+04 0.192      0.00      0.00     0.000 10.000
Ca   c F    s Buckingham    0.148E+04 0.266      0.00      0.00     0.000 10.000
F    s F    s Buckingham     912.     0.271      13.8      0.00     0.000 10.000
K    c F    s Buckingham    0.352E+04 0.267      0.00      0.00     0.000 10.000
F    c F    s Spring (c-s)   20.9      0.00      0.00      0.00     0.000  0.800
--------------------------------------------------------------------------------

********************************************************************************
*  Output for configuration   1                                                *
********************************************************************************


  Components of energy : 

--------------------------------------------------------------------------------
  Interatomic potentials     =          10.66009013 eV
  Monopole - monopole (real) =         -54.30022662 eV
  Monopole - monopole (recip)=         -67.93357072 eV
  Monopole - monopole (total)=        -122.23379735 eV
--------------------------------------------------------------------------------
  Total lattice energy       =        -111.57370721 eV
--------------------------------------------------------------------------------
  Total lattice energy       =          -10765.1572 kJ/(mole unit cells)
--------------------------------------------------------------------------------


  Number of variables =        3

  Maximum number of calculations  =          1000
  Maximum Hessian update interval =            10
  Maximum step size               =   1.000000000
  Maximum parameter tolerance     =   0.000010000
  Maximum function  tolerance     =   0.000010000
  Maximum gradient  tolerance     =   0.001000000
  Maximum gradient  component     =   0.010000000

  Symmetry constrained optimisation

  Symmetry used for second derivatives

  Cell parameters to be optimised using strains

  Newton-Raphson optimiser to be used

  BFGS hessian update to be used

  Start of bulk optimisation :

  Cycle:      0 Energy:      -111.573707  Gnorm:      4.377064  CPU:    0.007
  ** Hessian calculated **
  Cycle:      1 Energy:      -111.911743  Gnorm:      0.426115  CPU:    0.013
  Cycle:      2 Energy:      -111.914507  Gnorm:      0.062284  CPU:    0.019
  Cycle:      3 Energy:      -111.914580  Gnorm:      0.004955  CPU:    0.024
  Cycle:      4 Energy:      -111.914581  Gnorm:      0.001527  CPU:    0.030


  **** Optimisation achieved ****


  Final energy =    -111.91458075 eV
  Final Gnorm  =       0.00000570

  Components of energy : 

--------------------------------------------------------------------------------
  Interatomic potentials     =          13.85980234 eV
  Monopole - monopole (real) =         -55.87083724 eV
  Monopole - monopole (recip)=         -69.90354584 eV
  Monopole - monopole (total)=        -125.77438308 eV
--------------------------------------------------------------------------------
  Total lattice energy       =        -111.91458075 eV
--------------------------------------------------------------------------------
  Total lattice energy       =          -10798.0463 kJ/(mole unit cells)
--------------------------------------------------------------------------------

  Final asymmetric unit coordinates :

--------------------------------------------------------------------------------
   No.  Atomic        x           y           z         Radius
        Label       (Frac)      (Frac)      (Frac)       (Angs) 
--------------------------------------------------------------------------------
     1  K     c     0.042000    0.250000    0.490600    0.000000
     2  Ca    c     0.000000    0.000000    0.000000    0.000000
     3  F     c     0.471500    0.250000    0.581200    0.000000
     4  F     c     0.291600    0.040400    0.206800    0.000000
     5  F     s     0.471500    0.250000    0.581200    0.000000
     6  F     s     0.291600    0.040400    0.206800    0.000000
--------------------------------------------------------------------------------

  Final Cartesian lattice vectors (Angstroms) :

        6.069496    0.000000    0.000000
        0.000000    8.422304    0.000000
        0.000000    0.000000    5.954568


  Final cell parameters and derivatives :

--------------------------------------------------------------------------------
       a            6.069496 Angstrom     dE/de1(xx)     0.000009 eV/strain
       b            8.422304 Angstrom     dE/de2(yy)     0.000012 eV/strain
       c            5.954568 Angstrom     dE/de3(zz)     0.000008 eV/strain
       alpha       90.000000 Degrees      dE/de4(yz)     0.000000 eV/strain
       beta        90.000000 Degrees      dE/de5(xz)     0.000000 eV/strain
       gamma       90.000000 Degrees      dE/de6(xy)     0.000000 eV/strain
--------------------------------------------------------------------------------

  Primitive cell volume =           304.392419 Angs**3

  Density of cell =      2.971635 g/cm**3

  Non-primitive cell volume =           304.392419 Angs**3


  Final internal derivatives :

--------------------------------------------------------------------------------
   No.  Atomic          a             b             c           Radius
        Label          (eV)          (eV)          (eV)        (eV/Angs)
--------------------------------------------------------------------------------
      1 K     c       0.000000      0.000000      0.000000      0.000000
      2 Ca    c       0.000000      0.000000      0.000000      0.000000
      3 F     c       0.000000      0.000000      0.000000      0.000000
      4 F     c       0.000000      0.000000      0.000000      0.000000
      5 F     s       0.000000      0.000000      0.000000      0.000000
      6 F     s       0.000000      0.000000      0.000000      0.000000
--------------------------------------------------------------------------------
  Maximum abs         0.000000      0.000000      0.000000      0.000000
--------------------------------------------------------------------------------


  Born effective charge tensors : 

-------------------------------------------------------------------------------
  Atom             x           y             z
-------------------------------------------------------------------------------
   1 K     x       1.1670      0.0000     -0.0265
           y       0.0000      1.2021      0.0000
           z      -0.0293      0.0000      1.1581
-------------------------------------------------------------------------------
   2 Ca    x       1.2517      0.0113     -0.0053
           y       0.0064      1.2251      0.0025
           z      -0.0022      0.0077      1.2508
-------------------------------------------------------------------------------
   3 F     x      -0.8012      0.0000      0.0108
           y       0.0000     -0.7963      0.0000
           z       0.0136      0.0000     -0.7811
-------------------------------------------------------------------------------
   4 F     x      -0.8087      0.0182     -0.0012
           y       0.0238     -0.8155     -0.0260
           z       0.0000     -0.0274     -0.8139
-------------------------------------------------------------------------------




  Elastic Constant Matrix: (Units=GPa)

-------------------------------------------------------------------------------
  Indices      1         2         3         4         5         6    
-------------------------------------------------------------------------------
       1     78.5918   32.7373   38.9696    0.0000    0.0000    0.0000
       2     32.7373   88.2249   35.3740    0.0000    0.0000    0.0000
       3     38.9696   35.3740   82.2372    0.0000    0.0000    0.0000
       4      0.0000    0.0000    0.0000   24.2608    0.0000    0.0000
       5      0.0000    0.0000    0.0000    0.0000   25.9451    0.0000
       6      0.0000    0.0000    0.0000    0.0000    0.0000   27.9454
-------------------------------------------------------------------------------


  Elastic Compliance Matrix: (Units=1/GPa)

-------------------------------------------------------------------------------
  Indices      1         2         3         4         5         6    
-------------------------------------------------------------------------------
       1    0.017658 -0.003864 -0.006706  0.000000  0.000000  0.000000
       2   -0.003864  0.014542 -0.004424  0.000000  0.000000  0.000000
       3   -0.006706 -0.004424  0.017241  0.000000  0.000000  0.000000
       4    0.000000  0.000000  0.000000  0.041219  0.000000  0.000000
       5    0.000000  0.000000  0.000000  0.000000  0.038543  0.000000
       6    0.000000  0.000000  0.000000  0.000000  0.000000  0.035784
-------------------------------------------------------------------------------

  Mechanical properties :

-------------------------------------------------------------------------------
  Convention :                    Reuss         Voigt         Hill
-------------------------------------------------------------------------------
  Bulk  Modulus (GPa)     =      51.40436      51.46845      51.43641
  Shear Modulus (GPa)     =      24.81883      25.09512      24.95698
-------------------------------------------------------------------------------
  Velocity S-wave (km/s)  =       2.88997       2.90601       2.89800
  Velocity P-wave (km/s)  =       5.33237       5.34600       5.33919
-------------------------------------------------------------------------------
  Compressibility (1/GPa) =    0.01945360
-------------------------------------------------------------------------------
  Stress axis :                     x             y             z
-------------------------------------------------------------------------------
  Youngs Moduli (GPa)     =      56.63000      68.76460      58.00204
-------------------------------------------------------------------------------
  Poissons Ratio (x)      =                     0.26569       0.38895
  Poissons Ratio (y)      =       0.21880                     0.25663
  Poissons Ratio (z)      =       0.37975       0.30424
-------------------------------------------------------------------------------


  Piezoelectric Strain Matrix: (Units=C/m**2)

-------------------------------------------------------------------------------
  Indices      1         2         3         4         5         6    
-------------------------------------------------------------------------------
       x     0.00000   0.00000   0.00000   0.00000   0.00000   0.00000
       y     0.00000   0.00000   0.00000   0.00000   0.00000   0.00000
       z     0.00000   0.00000   0.00000   0.00000   0.00000   0.00000
-------------------------------------------------------------------------------


  Piezoelectric Stress Matrix: (Units=10**-11 C/N)

-------------------------------------------------------------------------------
  Indices      1         2         3         4         5         6    
-------------------------------------------------------------------------------
       x     0.00000   0.00000   0.00000   0.00000   0.00000   0.00000
       y     0.00000   0.00000   0.00000   0.00000   0.00000   0.00000
       z     0.00000   0.00000   0.00000   0.00000   0.00000   0.00000
-------------------------------------------------------------------------------


  Static dielectric constant tensor : 

-------------------------------------------------------------------------------
              x         y         z
-------------------------------------------------------------------------------
       x     4.68728   0.00000   0.00000
       y     0.00000   6.18116   0.00000
       z     0.00000   0.00000   4.44522
--------------------------------------------------------------------------------

  High frequency dielectric constant tensor : 

-------------------------------------------------------------------------------
              x         y         z
-------------------------------------------------------------------------------
       x     1.54576   0.00000   0.00000
       y     0.00000   1.54743   0.00000
       z     0.00000   0.00000   1.54373
-------------------------------------------------------------------------------

  Static refractive indices : 

-------------------------------------------------------------------------------
    1 =    2.10837      2 =    2.16501      3 =    2.48619
-------------------------------------------------------------------------------

  High frequency refractive indices : 

-------------------------------------------------------------------------------
    1 =    1.24247      2 =    1.24328      3 =    1.24396
-------------------------------------------------------------------------------


  Time to end of optimisation =       0.0524 seconds


  Peak dynamic memory used =       0.73 MB 


  Timing analysis for GULP :

--------------------------------------------------------------------------------
  Task / Subroutine                                          Time (Seconds)
--------------------------------------------------------------------------------
  Calculation of reciprocal space energy and derivatives          0.0026
  Calculation of reciprocal space energy using symmetry           0.0044
  Calculation of real space energy and derivatives                0.0126
  Calculation of real space energy using symmetry                 0.0285
  Symmetry generation of equivalent positions                     0.0004
--------------------------------------------------------------------------------
  Total CPU time                                                  0.0525
--------------------------------------------------------------------------------


  CIF file written as perov.cif                                               


  Job Finished at 09:36.01  6th April      2017                               

