********************************************************************************
*                       GENERAL UTILITY LATTICE PROGRAM                        *
*                                 Julian Gale                                  *
*                      Nanochemistry Research Institute                        *
*                           Department of Chemistry                            *
*                    Curtin University, Western Australia                      *
********************************************************************************
* Version = 4.3.2 * Last modified =  3rd March 2015                            *
********************************************************************************
*  optimise     - perform optimisation run                                     *
*  cell_only    - only optimise unit cell                                      *
*  property     - calculate properties for final geometry                      *
********************************************************************************

  Job Started  at 09:35.59  6th April      2017                               

  Number of CPUs =     1


  Total number of configurations input =   1

********************************************************************************
*  Input for Configuration =   1                                               *
********************************************************************************

  Formula = K4Ca4F12                                                    

  Number of irreducible atoms/shells =       6


  Total number atoms/shells =      32

  Dimensionality = 3               :  Bulk   


  Symmetry :

  Crystal family                   :  Orthorhombic
  Crystal class  (Groth - 1921)    :  Orthorhombic Bipyramidal             

  Space group (centrosymmetric)    :  P N M A         

  Patterson group                  :  P m m m  

  Cartesian lattice vectors (Angstroms) :

        6.223500    0.000000    0.000000
        0.000000    8.710300    0.000000
        0.000000    0.000000    6.118000

  Cell parameters (Angstroms/Degrees):

  a =       6.2235    alpha =  90.0000
  b =       8.7103    beta  =  90.0000
  c =       6.1180    gamma =  90.0000

  Initial cell volume =         331.647921 Angs**3

  Temperature of configuration =  0.000     K 

  Pressure of configuration =         0.000 GPa 

  Fractional coordinates of asymmetric unit :

--------------------------------------------------------------------------------
   No.  Atomic       x           y          z         Charge      Occupancy
        Label      (Frac)      (Frac)     (Frac)        (e)         (Frac)  
--------------------------------------------------------------------------------
      1 K     c    0.042000    0.250000    0.490600     0.90000    1.000000    
      2 Ca    c    0.000000    0.000000    0.000000     1.90000    1.000000    
      3 F     c    0.471500    0.250000    0.581200     0.37800    1.000000    
      4 F     c    0.291600    0.040400    0.206800     0.37800    1.000000    
      5 F     s    0.471500    0.250000    0.581200    -1.31133    1.000000    
      6 F     s    0.291600    0.040400    0.206800    -1.31133    1.000000    
--------------------------------------------------------------------------------



********************************************************************************
*  General input information                                                   *
********************************************************************************

  Species output for all configurations : 

--------------------------------------------------------------------------------
  Species    Type    Atomic    Atomic    Charge       Radii (Angs)     Library
                     Number     Mass       (e)     Cova   Ionic  VDW   Symbol
--------------------------------------------------------------------------------
    K        Core       19      39.10   0.900000   1.330  0.000  2.800          
    Ca       Core       20      40.08   1.900000   0.990  0.000  2.750          
    F        Core        9      19.00   0.378000   0.710  0.000  1.300          
    F        Shell       9       0.00  -1.311333   0.710  0.000  1.300          
--------------------------------------------------------------------------------


  Lattice summation method               =    Ewald          (3-D)
                                         =    Parry          (2-D)
                                         =    Saunders et al (1-D)
  Accuracy factor for lattice sums       =   12.000


  Time limit = Infinity

  Maximum range for interatomic potentials =    100000.000000 Angstroms

  General interatomic potentials :

--------------------------------------------------------------------------------
Atom  Types   Potential         A         B         C         D     Cutoffs(Ang)
  1     2                                                            Min    Max 
--------------------------------------------------------------------------------
K    c K    c Buckingham    0.219E+04 0.192      0.00      0.00     0.000 10.000
Ca   c F    s Buckingham    0.148E+04 0.266      0.00      0.00     0.000 10.000
F    s F    s Buckingham     912.     0.271      13.8      0.00     0.000 10.000
K    c F    s Buckingham    0.352E+04 0.267      0.00      0.00     0.000 10.000
F    c F    s Spring (c-s)   22.0      0.00      0.00      0.00     0.000  0.800
--------------------------------------------------------------------------------

********************************************************************************
*  Output for configuration   1                                                *
********************************************************************************


  Components of energy : 

--------------------------------------------------------------------------------
  Interatomic potentials     =          10.66009013 eV
  Monopole - monopole (real) =         -63.94100443 eV
  Monopole - monopole (recip)=         -78.07820325 eV
  Monopole - monopole (total)=        -142.01920769 eV
--------------------------------------------------------------------------------
  Total lattice energy       =        -131.35911756 eV
--------------------------------------------------------------------------------
  Total lattice energy       =          -12674.1468 kJ/(mole unit cells)
--------------------------------------------------------------------------------


  Number of variables =        3

  Maximum number of calculations  =          1000
  Maximum Hessian update interval =            10
  Maximum step size               =   1.000000000
  Maximum parameter tolerance     =   0.000010000
  Maximum function  tolerance     =   0.000010000
  Maximum gradient  tolerance     =   0.001000000
  Maximum gradient  component     =   0.010000000

  Symmetry constrained optimisation

  Symmetry used for second derivatives

  Cell parameters to be optimised using strains

  Newton-Raphson optimiser to be used

  BFGS hessian update to be used

  Start of bulk optimisation :

  Cycle:      0 Energy:      -131.359118  Gnorm:      8.182334  CPU:    0.008
  ** Hessian calculated **
  Cycle:      1 Energy:      -132.469004  Gnorm:      1.496067  CPU:    0.014
  Cycle:      2 Energy:      -132.495494  Gnorm:      0.369529  CPU:    0.019
  Cycle:      3 Energy:      -132.497719  Gnorm:      0.074957  CPU:    0.026
  Cycle:      4 Energy:      -132.497821  Gnorm:      0.000608  CPU:    0.032


  **** Optimisation achieved ****


  Final energy =    -132.49782103 eV
  Final Gnorm  =       0.00001145

  Components of energy : 

--------------------------------------------------------------------------------
  Interatomic potentials     =          16.79769106 eV
  Monopole - monopole (real) =         -67.21407965 eV
  Monopole - monopole (recip)=         -82.08143244 eV
  Monopole - monopole (total)=        -149.29551209 eV
--------------------------------------------------------------------------------
  Total lattice energy       =        -132.49782103 eV
--------------------------------------------------------------------------------
  Total lattice energy       =          -12784.0143 kJ/(mole unit cells)
--------------------------------------------------------------------------------

  Final asymmetric unit coordinates :

--------------------------------------------------------------------------------
   No.  Atomic        x           y           z         Radius
        Label       (Frac)      (Frac)      (Frac)       (Angs) 
--------------------------------------------------------------------------------
     1  K     c     0.042000    0.250000    0.490600    0.000000
     2  Ca    c     0.000000    0.000000    0.000000    0.000000
     3  F     c     0.471500    0.250000    0.581200    0.000000
     4  F     c     0.291600    0.040400    0.206800    0.000000
     5  F     s     0.471500    0.250000    0.581200    0.000000
     6  F     s     0.291600    0.040400    0.206800    0.000000
--------------------------------------------------------------------------------

  Final Cartesian lattice vectors (Angstroms) :

        5.939072    0.000000    0.000000
        0.000000    8.241095    0.000000
        0.000000    0.000000    5.832107


  Final cell parameters and derivatives :

--------------------------------------------------------------------------------
       a            5.939072 Angstrom     dE/de1(xx)    -0.000014 eV/strain
       b            8.241095 Angstrom     dE/de2(yy)    -0.000028 eV/strain
       c            5.832107 Angstrom     dE/de3(zz)    -0.000014 eV/strain
       alpha       90.000000 Degrees      dE/de4(yz)     0.000000 eV/strain
       beta        90.000000 Degrees      dE/de5(xz)     0.000000 eV/strain
       gamma       90.000000 Degrees      dE/de6(xy)     0.000000 eV/strain
--------------------------------------------------------------------------------

  Primitive cell volume =           285.449280 Angs**3

  Density of cell =      3.168840 g/cm**3

  Non-primitive cell volume =           285.449280 Angs**3


  Final internal derivatives :

--------------------------------------------------------------------------------
   No.  Atomic          a             b             c           Radius
        Label          (eV)          (eV)          (eV)        (eV/Angs)
--------------------------------------------------------------------------------
      1 K     c       0.000000      0.000000      0.000000      0.000000
      2 Ca    c       0.000000      0.000000      0.000000      0.000000
      3 F     c       0.000000      0.000000      0.000000      0.000000
      4 F     c       0.000000      0.000000      0.000000      0.000000
      5 F     s       0.000000      0.000000      0.000000      0.000000
      6 F     s       0.000000      0.000000      0.000000      0.000000
--------------------------------------------------------------------------------
  Maximum abs         0.000000      0.000000      0.000000      0.000000
--------------------------------------------------------------------------------


  Born effective charge tensors : 

-------------------------------------------------------------------------------
  Atom             x           y             z
-------------------------------------------------------------------------------
   1 K     x       0.7764      0.0000     -0.0421
           y       0.0000      0.8175      0.0000
           z      -0.0421      0.0000      0.7666
-------------------------------------------------------------------------------
   2 Ca    x       1.7006      0.0102     -0.0236
           y      -0.0007      1.6669     -0.0135
           z       0.0067      0.0234      1.7016
-------------------------------------------------------------------------------
   3 F     x      -0.7566      0.0000      0.0230
           y       0.0000     -0.9432      0.0000
           z       0.0356      0.0000     -0.7344
-------------------------------------------------------------------------------
   4 F     x      -0.8602      0.0213     -0.1000
           y       0.0259     -0.7706     -0.0194
           z      -0.0982     -0.0192     -0.8669
-------------------------------------------------------------------------------




  Elastic Constant Matrix: (Units=GPa)

-------------------------------------------------------------------------------
  Indices      1         2         3         4         5         6    
-------------------------------------------------------------------------------
       1     96.6747   42.7442   44.8179    0.0000    0.0000    0.0000
       2     42.7442  101.7533   48.0075    0.0000    0.0000    0.0000
       3     44.8179   48.0075  100.6355    0.0000    0.0000    0.0000
       4      0.0000    0.0000    0.0000   32.0779    0.0000    0.0000
       5      0.0000    0.0000    0.0000    0.0000   25.2353    0.0000
       6      0.0000    0.0000    0.0000    0.0000    0.0000   37.4822
-------------------------------------------------------------------------------


  Elastic Compliance Matrix: (Units=1/GPa)

-------------------------------------------------------------------------------
  Indices      1         2         3         4         5         6    
-------------------------------------------------------------------------------
       1    0.014099 -0.003820 -0.004457  0.000000  0.000000  0.000000
       2   -0.003820  0.013717 -0.004842  0.000000  0.000000  0.000000
       3   -0.004457 -0.004842  0.014232  0.000000  0.000000  0.000000
       4    0.000000  0.000000  0.000000  0.031174  0.000000  0.000000
       5    0.000000  0.000000  0.000000  0.000000  0.039627  0.000000
       6    0.000000  0.000000  0.000000  0.000000  0.000000  0.026679
-------------------------------------------------------------------------------

  Mechanical properties :

-------------------------------------------------------------------------------
  Convention :                    Reuss         Voigt         Hill
-------------------------------------------------------------------------------
  Bulk  Modulus (GPa)     =      63.25272      63.35584      63.30428
  Shear Modulus (GPa)     =      29.23355      29.85865      29.54610
-------------------------------------------------------------------------------
  Velocity S-wave (km/s)  =       3.03732       3.06962       3.05351
  Velocity P-wave (km/s)  =       5.67990       5.70586       5.69289
-------------------------------------------------------------------------------
  Compressibility (1/GPa) =    0.01580960
-------------------------------------------------------------------------------
  Stress axis :                     x             y             z
-------------------------------------------------------------------------------
  Youngs Moduli (GPa)     =      70.92667      72.90204      70.26584
-------------------------------------------------------------------------------
  Poissons Ratio (x)      =                     0.27849       0.31315
  Poissons Ratio (y)      =       0.27094                     0.34025
  Poissons Ratio (z)      =       0.31610       0.35302
-------------------------------------------------------------------------------


  Piezoelectric Strain Matrix: (Units=C/m**2)

-------------------------------------------------------------------------------
  Indices      1         2         3         4         5         6    
-------------------------------------------------------------------------------
       x     0.00000   0.00000   0.00000   0.00000   0.00000   0.00000
       y     0.00000   0.00000   0.00000   0.00000   0.00000   0.00000
       z     0.00000   0.00000   0.00000   0.00000   0.00000   0.00000
-------------------------------------------------------------------------------


  Piezoelectric Stress Matrix: (Units=10**-11 C/N)

-------------------------------------------------------------------------------
  Indices      1         2         3         4         5         6    
-------------------------------------------------------------------------------
       x     0.00000   0.00000   0.00000   0.00000   0.00000   0.00000
       y     0.00000   0.00000   0.00000   0.00000   0.00000   0.00000
       z     0.00000   0.00000   0.00000   0.00000   0.00000   0.00000
-------------------------------------------------------------------------------


  Static dielectric constant tensor : 

-------------------------------------------------------------------------------
              x         y         z
-------------------------------------------------------------------------------
       x     3.83951   0.00000   0.00000
       y     0.00000   3.87873   0.00000
       z     0.00000   0.00000   3.63133
--------------------------------------------------------------------------------

  High frequency dielectric constant tensor : 

-------------------------------------------------------------------------------
              x         y         z
-------------------------------------------------------------------------------
       x     1.57866   0.00000   0.00000
       y     0.00000   1.58022   0.00000
       z     0.00000   0.00000   1.57661
-------------------------------------------------------------------------------

  Static refractive indices : 

-------------------------------------------------------------------------------
    1 =    1.90560      2 =    1.95947      3 =    1.96945
-------------------------------------------------------------------------------

  High frequency refractive indices : 

-------------------------------------------------------------------------------
    1 =    1.25563      2 =    1.25645      3 =    1.25707
-------------------------------------------------------------------------------


  Time to end of optimisation =       0.0546 seconds


  Peak dynamic memory used =       0.73 MB 


  Timing analysis for GULP :

--------------------------------------------------------------------------------
  Task / Subroutine                                          Time (Seconds)
--------------------------------------------------------------------------------
  Calculation of reciprocal space energy and derivatives          0.0026
  Calculation of reciprocal space energy using symmetry           0.0044
  Calculation of real space energy and derivatives                0.0126
  Calculation of real space energy using symmetry                 0.0303
  Symmetry generation of equivalent positions                     0.0004
--------------------------------------------------------------------------------
  Total CPU time                                                  0.0546
--------------------------------------------------------------------------------


  CIF file written as perov.cif                                               


  Job Finished at 09:35.59  6th April      2017                               

