********************************************************************************
*                       GENERAL UTILITY LATTICE PROGRAM                        *
*                                 Julian Gale                                  *
*                      Nanochemistry Research Institute                        *
*                           Department of Chemistry                            *
*                    Curtin University, Western Australia                      *
********************************************************************************
* Version = 4.3.2 * Last modified =  3rd March 2015                            *
********************************************************************************
*  optimise     - perform optimisation run                                     *
*  cell_only    - only optimise unit cell                                      *
*  property     - calculate properties for final geometry                      *
********************************************************************************

  Job Started  at 09:35.57  6th April      2017                               

  Number of CPUs =     1


  Total number of configurations input =   1

********************************************************************************
*  Input for Configuration =   1                                               *
********************************************************************************

  Formula = K4Ca4F12                                                    

  Number of irreducible atoms/shells =       6


  Total number atoms/shells =      32

  Dimensionality = 3               :  Bulk   


  Symmetry :

  Crystal family                   :  Orthorhombic
  Crystal class  (Groth - 1921)    :  Orthorhombic Bipyramidal             

  Space group (centrosymmetric)    :  P N M A         

  Patterson group                  :  P m m m  

  Cartesian lattice vectors (Angstroms) :

        6.223500    0.000000    0.000000
        0.000000    8.710300    0.000000
        0.000000    0.000000    6.118000

  Cell parameters (Angstroms/Degrees):

  a =       6.2235    alpha =  90.0000
  b =       8.7103    beta  =  90.0000
  c =       6.1180    gamma =  90.0000

  Initial cell volume =         331.647921 Angs**3

  Temperature of configuration =  0.000     K 

  Pressure of configuration =         0.000 GPa 

  Fractional coordinates of asymmetric unit :

--------------------------------------------------------------------------------
   No.  Atomic       x           y          z         Charge      Occupancy
        Label      (Frac)      (Frac)     (Frac)        (e)         (Frac)  
--------------------------------------------------------------------------------
      1 K     c    0.042000    0.250000    0.490600     0.60000    1.000000    
      2 Ca    c    0.000000    0.000000    0.000000     1.50000    1.000000    
      3 F     c    0.471500    0.250000    0.581200     0.37800    1.000000    
      4 F     c    0.291600    0.040400    0.206800     0.37800    1.000000    
      5 F     s    0.471500    0.250000    0.581200    -1.07800    1.000000    
      6 F     s    0.291600    0.040400    0.206800    -1.07800    1.000000    
--------------------------------------------------------------------------------



********************************************************************************
*  General input information                                                   *
********************************************************************************

  Species output for all configurations : 

--------------------------------------------------------------------------------
  Species    Type    Atomic    Atomic    Charge       Radii (Angs)     Library
                     Number     Mass       (e)     Cova   Ionic  VDW   Symbol
--------------------------------------------------------------------------------
    K        Core       19      39.10   0.600000   1.330  0.000  2.800          
    Ca       Core       20      40.08   1.500000   0.990  0.000  2.750          
    F        Core        9      19.00   0.378000   0.710  0.000  1.300          
    F        Shell       9       0.00  -1.078000   0.710  0.000  1.300          
--------------------------------------------------------------------------------


  Lattice summation method               =    Ewald          (3-D)
                                         =    Parry          (2-D)
                                         =    Saunders et al (1-D)
  Accuracy factor for lattice sums       =   12.000


  Time limit = Infinity

  Maximum range for interatomic potentials =    100000.000000 Angstroms

  General interatomic potentials :

--------------------------------------------------------------------------------
Atom  Types   Potential         A         B         C         D     Cutoffs(Ang)
  1     2                                                            Min    Max 
--------------------------------------------------------------------------------
K    c K    c Buckingham    0.219E+04 0.192      0.00      0.00     0.000 10.000
Ca   c F    s Buckingham    0.148E+04 0.266      0.00      0.00     0.000 10.000
F    s F    s Buckingham     912.     0.271      13.8      0.00     0.000 10.000
K    c F    s Buckingham    0.352E+04 0.267      0.00      0.00     0.000 10.000
F    c F    s Spring (c-s)   14.9      0.00      0.00      0.00     0.000  0.800
--------------------------------------------------------------------------------

********************************************************************************
*  Output for configuration   1                                                *
********************************************************************************


  Components of energy : 

--------------------------------------------------------------------------------
  Interatomic potentials     =          10.66009013 eV
  Monopole - monopole (real) =         -37.00639035 eV
  Monopole - monopole (recip)=         -45.27946080 eV
  Monopole - monopole (total)=         -82.28585115 eV
--------------------------------------------------------------------------------
  Total lattice energy       =         -71.62576102 eV
--------------------------------------------------------------------------------
  Total lattice energy       =           -6910.7910 kJ/(mole unit cells)
--------------------------------------------------------------------------------


  Number of variables =        3

  Maximum number of calculations  =          1000
  Maximum Hessian update interval =            10
  Maximum step size               =   1.000000000
  Maximum parameter tolerance     =   0.000010000
  Maximum function  tolerance     =   0.000010000
  Maximum gradient  tolerance     =   0.001000000
  Maximum gradient  component     =   0.010000000

  Symmetry constrained optimisation

  Symmetry used for second derivatives

  Cell parameters to be optimised using strains

  Newton-Raphson optimiser to be used

  BFGS hessian update to be used

  Start of bulk optimisation :

  Cycle:      0 Energy:       -71.625761  Gnorm:      3.323846  CPU:    0.007
  ** Hessian calculated **
  Cycle:      1 Energy:       -71.839025  Gnorm:      0.075096  CPU:    0.014
  Cycle:      2 Energy:       -71.839166  Gnorm:      0.002537  CPU:    0.019


  **** Optimisation achieved ****


  Final energy =     -71.83916584 eV
  Final Gnorm  =       0.00003109

  Components of energy : 

--------------------------------------------------------------------------------
  Interatomic potentials     =           8.37319068 eV
  Monopole - monopole (real) =         -36.07232546 eV
  Monopole - monopole (recip)=         -44.14003105 eV
  Monopole - monopole (total)=         -80.21235652 eV
--------------------------------------------------------------------------------
  Total lattice energy       =         -71.83916584 eV
--------------------------------------------------------------------------------
  Total lattice energy       =           -6931.3813 kJ/(mole unit cells)
--------------------------------------------------------------------------------

  Final asymmetric unit coordinates :

--------------------------------------------------------------------------------
   No.  Atomic        x           y           z         Radius
        Label       (Frac)      (Frac)      (Frac)       (Angs) 
--------------------------------------------------------------------------------
     1  K     c     0.042000    0.250000    0.490600    0.000000
     2  Ca    c     0.000000    0.000000    0.000000    0.000000
     3  F     c     0.471500    0.250000    0.581200    0.000000
     4  F     c     0.291600    0.040400    0.206800    0.000000
     5  F     s     0.471500    0.250000    0.581200    0.000000
     6  F     s     0.291600    0.040400    0.206800    0.000000
--------------------------------------------------------------------------------

  Final Cartesian lattice vectors (Angstroms) :

        6.401056    0.000000    0.000000
        0.000000    8.890942    0.000000
        0.000000    0.000000    6.290424


  Final cell parameters and derivatives :

--------------------------------------------------------------------------------
       a            6.401056 Angstrom     dE/de1(xx)    -0.000064 eV/strain
       b            8.890942 Angstrom     dE/de2(yy)    -0.000027 eV/strain
       c            6.290424 Angstrom     dE/de3(zz)    -0.000062 eV/strain
       alpha       90.000000 Degrees      dE/de4(yz)     0.000000 eV/strain
       beta        90.000000 Degrees      dE/de5(xz)     0.000000 eV/strain
       gamma       90.000000 Degrees      dE/de6(xy)     0.000000 eV/strain
--------------------------------------------------------------------------------

  Primitive cell volume =           357.996983 Angs**3

  Density of cell =      2.526678 g/cm**3

  Non-primitive cell volume =           357.996983 Angs**3


  Final internal derivatives :

--------------------------------------------------------------------------------
   No.  Atomic          a             b             c           Radius
        Label          (eV)          (eV)          (eV)        (eV/Angs)
--------------------------------------------------------------------------------
      1 K     c       0.000000      0.000000      0.000000      0.000000
      2 Ca    c       0.000000      0.000000      0.000000      0.000000
      3 F     c       0.000000      0.000000      0.000000      0.000000
      4 F     c       0.000000      0.000000      0.000000      0.000000
      5 F     s       0.000000      0.000000      0.000000      0.000000
      6 F     s       0.000000      0.000000      0.000000      0.000000
--------------------------------------------------------------------------------
  Maximum abs         0.000000      0.000000      0.000000      0.000000
--------------------------------------------------------------------------------


  Born effective charge tensors : 

-------------------------------------------------------------------------------
  Atom             x           y             z
-------------------------------------------------------------------------------
   1 K     x       0.5222      0.0000     -0.0276
           y       0.0000      0.5486      0.0000
           z      -0.0271      0.0000      0.5153
-------------------------------------------------------------------------------
   2 Ca    x       1.3465      0.0058     -0.0128
           y       0.0001      1.3243     -0.0055
           z       0.0027      0.0128      1.3472
-------------------------------------------------------------------------------
   3 F     x      -0.5785      0.0000      0.0167
           y       0.0000     -0.6969      0.0000
           z       0.0231      0.0000     -0.5623
-------------------------------------------------------------------------------
   4 F     x      -0.6451      0.0151     -0.0645
           y       0.0175     -0.5880     -0.0134
           z      -0.0635     -0.0132     -0.6501
-------------------------------------------------------------------------------




  Elastic Constant Matrix: (Units=GPa)

-------------------------------------------------------------------------------
  Indices      1         2         3         4         5         6    
-------------------------------------------------------------------------------
       1     44.5391   19.0720   23.9714    0.0000    0.0000    0.0000
       2     19.0720   49.6397   21.7070    0.0000    0.0000    0.0000
       3     23.9714   21.7070   44.3463    0.0000    0.0000    0.0000
       4      0.0000    0.0000    0.0000   12.5508    0.0000    0.0000
       5      0.0000    0.0000    0.0000    0.0000   13.3508    0.0000
       6      0.0000    0.0000    0.0000    0.0000    0.0000   15.1785
-------------------------------------------------------------------------------


  Elastic Compliance Matrix: (Units=1/GPa)

-------------------------------------------------------------------------------
  Indices      1         2         3         4         5         6    
-------------------------------------------------------------------------------
       1    0.033111 -0.006228 -0.014850  0.000000  0.000000  0.000000
       2   -0.006228  0.026803 -0.009753  0.000000  0.000000  0.000000
       3   -0.014850 -0.009753  0.035351  0.000000  0.000000  0.000000
       4    0.000000  0.000000  0.000000  0.079676  0.000000  0.000000
       5    0.000000  0.000000  0.000000  0.000000  0.074902  0.000000
       6    0.000000  0.000000  0.000000  0.000000  0.000000  0.065883
-------------------------------------------------------------------------------

  Mechanical properties :

-------------------------------------------------------------------------------
  Convention :                    Reuss         Voigt         Hill
-------------------------------------------------------------------------------
  Bulk  Modulus (GPa)     =      29.75902      29.78067      29.76985
  Shear Modulus (GPa)     =      12.86706      13.13434      13.00070
-------------------------------------------------------------------------------
  Velocity S-wave (km/s)  =       2.25665       2.27997       2.26834
  Velocity P-wave (km/s)  =       4.30905       4.32637       4.31772
-------------------------------------------------------------------------------
  Compressibility (1/GPa) =    0.03360326
-------------------------------------------------------------------------------
  Stress axis :                     x             y             z
-------------------------------------------------------------------------------
  Youngs Moduli (GPa)     =      30.20106      37.30924      28.28777
-------------------------------------------------------------------------------
  Poissons Ratio (x)      =                     0.23236       0.42007
  Poissons Ratio (y)      =       0.18809                     0.27590
  Poissons Ratio (z)      =       0.44848       0.36389
-------------------------------------------------------------------------------


  Piezoelectric Strain Matrix: (Units=C/m**2)

-------------------------------------------------------------------------------
  Indices      1         2         3         4         5         6    
-------------------------------------------------------------------------------
       x     0.00000   0.00000   0.00000   0.00000   0.00000   0.00000
       y     0.00000   0.00000   0.00000   0.00000   0.00000   0.00000
       z     0.00000   0.00000   0.00000   0.00000   0.00000   0.00000
-------------------------------------------------------------------------------


  Piezoelectric Stress Matrix: (Units=10**-11 C/N)

-------------------------------------------------------------------------------
  Indices      1         2         3         4         5         6    
-------------------------------------------------------------------------------
       x     0.00000   0.00000   0.00000   0.00000   0.00000   0.00000
       y     0.00000   0.00000   0.00000   0.00000   0.00000   0.00000
       z     0.00000   0.00000   0.00000   0.00000   0.00000   0.00000
-------------------------------------------------------------------------------


  Static dielectric constant tensor : 

-------------------------------------------------------------------------------
              x         y         z
-------------------------------------------------------------------------------
       x     3.29885   0.00000   0.00000
       y     0.00000   3.34183   0.00000
       z     0.00000   0.00000   3.09002
--------------------------------------------------------------------------------

  High frequency dielectric constant tensor : 

-------------------------------------------------------------------------------
              x         y         z
-------------------------------------------------------------------------------
       x     1.46569   0.00000   0.00000
       y     0.00000   1.46661   0.00000
       z     0.00000   0.00000   1.46421
-------------------------------------------------------------------------------

  Static refractive indices : 

-------------------------------------------------------------------------------
    1 =    1.75785      2 =    1.81627      3 =    1.82807
-------------------------------------------------------------------------------

  High frequency refractive indices : 

-------------------------------------------------------------------------------
    1 =    1.21005      2 =    1.21066      3 =    1.21104
-------------------------------------------------------------------------------


  Time to end of optimisation =       0.0415 seconds


  Peak dynamic memory used =       0.73 MB 


  Timing analysis for GULP :

--------------------------------------------------------------------------------
  Task / Subroutine                                          Time (Seconds)
--------------------------------------------------------------------------------
  Calculation of reciprocal space energy and derivatives          0.0025
  Calculation of reciprocal space energy using symmetry           0.0030
  Calculation of real space energy and derivatives                0.0126
  Calculation of real space energy using symmetry                 0.0192
  Symmetry generation of equivalent positions                     0.0003
--------------------------------------------------------------------------------
  Total CPU time                                                  0.0415
--------------------------------------------------------------------------------


  CIF file written as perov.cif                                               


  Job Finished at 09:35.57  6th April      2017                               

