********************************************************************************
*                       GENERAL UTILITY LATTICE PROGRAM                        *
*                                 Julian Gale                                  *
*                      Nanochemistry Research Institute                        *
*                           Department of Chemistry                            *
*                    Curtin University, Western Australia                      *
********************************************************************************
* Version = 4.3.2 * Last modified =  3rd March 2015                            *
********************************************************************************
*  optimise     - perform optimisation run                                     *
*  cell_only    - only optimise unit cell                                      *
*  property     - calculate properties for final geometry                      *
********************************************************************************

  Job Started  at 09:36.01  6th April      2017                               

  Number of CPUs =     1


  Total number of configurations input =   1

********************************************************************************
*  Input for Configuration =   1                                               *
********************************************************************************

  Formula = K4Ca4F12                                                    

  Number of irreducible atoms/shells =       6


  Total number atoms/shells =      32

  Dimensionality = 3               :  Bulk   


  Symmetry :

  Crystal family                   :  Orthorhombic
  Crystal class  (Groth - 1921)    :  Orthorhombic Bipyramidal             

  Space group (centrosymmetric)    :  P N M A         

  Patterson group                  :  P m m m  

  Cartesian lattice vectors (Angstroms) :

        6.223500    0.000000    0.000000
        0.000000    8.710300    0.000000
        0.000000    0.000000    6.118000

  Cell parameters (Angstroms/Degrees):

  a =       6.2235    alpha =  90.0000
  b =       8.7103    beta  =  90.0000
  c =       6.1180    gamma =  90.0000

  Initial cell volume =         331.647921 Angs**3

  Temperature of configuration =  0.000     K 

  Pressure of configuration =         0.000 GPa 

  Fractional coordinates of asymmetric unit :

--------------------------------------------------------------------------------
   No.  Atomic       x           y          z         Charge      Occupancy
        Label      (Frac)      (Frac)     (Frac)        (e)         (Frac)  
--------------------------------------------------------------------------------
      1 K     c    0.042000    0.250000    0.490600     1.10000    1.000000    
      2 Ca    c    0.000000    0.000000    0.000000     2.00000    1.000000    
      3 F     c    0.471500    0.250000    0.581200     0.37800    1.000000    
      4 F     c    0.291600    0.040400    0.206800     0.37800    1.000000    
      5 F     s    0.471500    0.250000    0.581200    -1.41133    1.000000    
      6 F     s    0.291600    0.040400    0.206800    -1.41133    1.000000    
--------------------------------------------------------------------------------



********************************************************************************
*  General input information                                                   *
********************************************************************************

  Species output for all configurations : 

--------------------------------------------------------------------------------
  Species    Type    Atomic    Atomic    Charge       Radii (Angs)     Library
                     Number     Mass       (e)     Cova   Ionic  VDW   Symbol
--------------------------------------------------------------------------------
    K        Core       19      39.10   1.100000   1.330  0.000  2.800          
    Ca       Core       20      40.08   2.000000   0.990  0.000  2.750          
    F        Core        9      19.00   0.378000   0.710  0.000  1.300          
    F        Shell       9       0.00  -1.411333   0.710  0.000  1.300          
--------------------------------------------------------------------------------


  Lattice summation method               =    Ewald          (3-D)
                                         =    Parry          (2-D)
                                         =    Saunders et al (1-D)
  Accuracy factor for lattice sums       =   12.000


  Time limit = Infinity

  Maximum range for interatomic potentials =    100000.000000 Angstroms

  General interatomic potentials :

--------------------------------------------------------------------------------
Atom  Types   Potential         A         B         C         D     Cutoffs(Ang)
  1     2                                                            Min    Max 
--------------------------------------------------------------------------------
K    c K    c Buckingham    0.219E+04 0.192      0.00      0.00     0.000 10.000
Ca   c F    s Buckingham    0.148E+04 0.266      0.00      0.00     0.000 10.000
F    s F    s Buckingham     912.     0.271      13.8      0.00     0.000 10.000
K    c F    s Buckingham    0.352E+04 0.267      0.00      0.00     0.000 10.000
F    c F    s Spring (c-s)   25.5      0.00      0.00      0.00     0.000  0.800
--------------------------------------------------------------------------------

********************************************************************************
*  Output for configuration   1                                                *
********************************************************************************


  Components of energy : 

--------------------------------------------------------------------------------
  Interatomic potentials     =          10.66009013 eV
  Monopole - monopole (real) =         -76.37657278 eV
  Monopole - monopole (recip)=         -93.41224789 eV
  Monopole - monopole (total)=        -169.78882067 eV
--------------------------------------------------------------------------------
  Total lattice energy       =        -159.12873054 eV
--------------------------------------------------------------------------------
  Total lattice energy       =          -15353.4900 kJ/(mole unit cells)
--------------------------------------------------------------------------------


  Number of variables =        3

  Maximum number of calculations  =          1000
  Maximum Hessian update interval =            10
  Maximum step size               =   1.000000000
  Maximum parameter tolerance     =   0.000010000
  Maximum function  tolerance     =   0.000010000
  Maximum gradient  tolerance     =   0.001000000
  Maximum gradient  component     =   0.010000000

  Symmetry constrained optimisation

  Symmetry used for second derivatives

  Cell parameters to be optimised using strains

  Newton-Raphson optimiser to be used

  BFGS hessian update to be used

  Start of bulk optimisation :

  Cycle:      0 Energy:      -159.128731  Gnorm:     13.526552  CPU:    0.007
  ** Hessian calculated **
  Cycle:      1 Energy:      -161.937881  Gnorm:      3.801615  CPU:    0.013
  Cycle:      2 Energy:      -162.083425  Gnorm:      0.367445  CPU:    0.020
  Cycle:      3 Energy:      -162.087466  Gnorm:      0.054543  CPU:    0.027
  Cycle:      4 Energy:      -162.087585  Gnorm:      0.047172  CPU:    0.034
  Cycle:      5 Energy:      -162.087586  Gnorm:      0.046091  CPU:    0.041
  Cycle:      6 Energy:      -162.087596  Gnorm:      0.035092  CPU:    0.050
  Cycle:      7 Energy:      -162.087602  Gnorm:      0.028099  CPU:    0.060
  Cycle:      8 Energy:      -162.087602  Gnorm:      0.028099  CPU:    0.066
  ** Hessian calculated **
  Cycle:      9 Energy:      -162.087602  Gnorm:      0.028099  CPU:    0.079
  ** Hessian calculated **


  **** Conditions for a minimum have not been satisfied. However ****
  **** no lower point can be found - treat results with caution  ****
  **** unless gradient norm is small (less than 0.1)             ****


  Final energy =    -162.08760161 eV
  Final Gnorm  =       0.02809913

  Components of energy : 

--------------------------------------------------------------------------------
  Interatomic potentials     =          21.15983581 eV
  Monopole - monopole (real) =         -82.42708531 eV
  Monopole - monopole (recip)=        -100.82035211 eV
  Monopole - monopole (total)=        -183.24743742 eV
--------------------------------------------------------------------------------
  Total lattice energy       =        -162.08760161 eV
--------------------------------------------------------------------------------
  Total lattice energy       =          -15638.9758 kJ/(mole unit cells)
--------------------------------------------------------------------------------

  Final asymmetric unit coordinates :

--------------------------------------------------------------------------------
   No.  Atomic        x           y           z         Radius
        Label       (Frac)      (Frac)      (Frac)       (Angs) 
--------------------------------------------------------------------------------
     1  K     c     0.042000    0.250000    0.490600    0.000000
     2  Ca    c     0.000000    0.000000    0.000000    0.000000
     3  F     c     0.471500    0.250000    0.581200    0.000000
     4  F     c     0.291600    0.040400    0.206800    0.000000
     5  F     s     0.471500    0.250000    0.581200    0.000000
     6  F     s     0.291600    0.040400    0.206800    0.000000
--------------------------------------------------------------------------------

  Final Cartesian lattice vectors (Angstroms) :

        5.786533    0.000000    0.000000
        0.000000    8.025597    0.000000
        0.000000    0.000000    5.679974


  Final cell parameters and derivatives :

--------------------------------------------------------------------------------
       a            5.786533 Angstrom     dE/de1(xx)    -0.041498 eV/strain
       b            8.025597 Angstrom     dE/de2(yy)    -0.060704 eV/strain
       c            5.679974 Angstrom     dE/de3(zz)    -0.041219 eV/strain
       alpha       90.000000 Degrees      dE/de4(yz)     0.000000 eV/strain
       beta        90.000000 Degrees      dE/de5(xz)     0.000000 eV/strain
       gamma       90.000000 Degrees      dE/de6(xy)     0.000000 eV/strain
--------------------------------------------------------------------------------

  Primitive cell volume =           263.780152 Angs**3

  Density of cell =      3.429156 g/cm**3

  Non-primitive cell volume =           263.780152 Angs**3


  Final internal derivatives :

--------------------------------------------------------------------------------
   No.  Atomic          a             b             c           Radius
        Label          (eV)          (eV)          (eV)        (eV/Angs)
--------------------------------------------------------------------------------
      1 K     c       0.000000      0.000000      0.000000      0.000000
      2 Ca    c       0.000000      0.000000      0.000000      0.000000
      3 F     c       0.000000      0.000000      0.000000      0.000000
      4 F     c       0.000000      0.000000      0.000000      0.000000
      5 F     s       0.000000      0.000000      0.000000      0.000000
      6 F     s       0.000000      0.000000      0.000000      0.000000
--------------------------------------------------------------------------------
  Maximum abs         0.000000      0.000000      0.000000      0.000000
--------------------------------------------------------------------------------


  Born effective charge tensors : 

-------------------------------------------------------------------------------
  Atom             x           y             z
-------------------------------------------------------------------------------
   1 K     x       0.9725      0.0000     -0.0449
           y       0.0000      1.0194      0.0000
           z      -0.0466      0.0000      0.9614
-------------------------------------------------------------------------------
   2 Ca    x       1.7734      0.0121     -0.0248
           y       0.0002      1.7354     -0.0142
           z       0.0068      0.0252      1.7741
-------------------------------------------------------------------------------
   3 F     x      -0.8457      0.0000      0.0233
           y       0.0000     -1.0306      0.0000
           z       0.0375      0.0000     -0.8218
-------------------------------------------------------------------------------
   4 F     x      -0.9501      0.0231     -0.0991
           y       0.0291     -0.8621     -0.0235
           z      -0.0971     -0.0235     -0.9569
-------------------------------------------------------------------------------




  Elastic Constant Matrix: (Units=GPa)

-------------------------------------------------------------------------------
  Indices      1         2         3         4         5         6    
-------------------------------------------------------------------------------
       1    125.8465   55.6964   54.8371    0.0000    0.0000    0.0000
       2     55.6964  130.4472   61.6406    0.0000    0.0000    0.0000
       3     54.8371   61.6406  133.3826    0.0000    0.0000    0.0000
       4      0.0000    0.0000    0.0000   43.8685    0.0000    0.0000
       5      0.0000    0.0000    0.0000    0.0000   32.1838    0.0000
       6      0.0000    0.0000    0.0000    0.0000    0.0000   50.4613
-------------------------------------------------------------------------------


  Elastic Compliance Matrix: (Units=1/GPa)

-------------------------------------------------------------------------------
  Indices      1         2         3         4         5         6    
-------------------------------------------------------------------------------
       1    0.010608 -0.003158 -0.002902  0.000000  0.000000  0.000000
       2   -0.003158  0.010748 -0.003669  0.000000  0.000000  0.000000
       3   -0.002902 -0.003669  0.010386  0.000000  0.000000  0.000000
       4    0.000000  0.000000  0.000000  0.022795  0.000000  0.000000
       5    0.000000  0.000000  0.000000  0.000000  0.031072  0.000000
       6    0.000000  0.000000  0.000000  0.000000  0.000000  0.019817
-------------------------------------------------------------------------------

  Mechanical properties :

-------------------------------------------------------------------------------
  Convention :                    Reuss         Voigt         Hill
-------------------------------------------------------------------------------
  Bulk  Modulus (GPa)     =      81.40222      81.55829      81.48026
  Shear Modulus (GPa)     =      38.76626      39.80287      39.28457
-------------------------------------------------------------------------------
  Velocity S-wave (km/s)  =       3.36228       3.40693       3.38468
  Velocity P-wave (km/s)  =       6.22989       6.26578       6.24786
-------------------------------------------------------------------------------
  Compressibility (1/GPa) =    0.01228468
-------------------------------------------------------------------------------
  Stress axis :                     x             y             z
-------------------------------------------------------------------------------
  Youngs Moduli (GPa)     =      94.26487      93.04166      96.28684
-------------------------------------------------------------------------------
  Poissons Ratio (x)      =                     0.29384       0.27941
  Poissons Ratio (y)      =       0.29770                     0.35323
  Poissons Ratio (z)      =       0.27355       0.34133
-------------------------------------------------------------------------------


  Piezoelectric Strain Matrix: (Units=C/m**2)

-------------------------------------------------------------------------------
  Indices      1         2         3         4         5         6    
-------------------------------------------------------------------------------
       x     0.00000   0.00000   0.00000   0.00000   0.00000   0.00000
       y     0.00000   0.00000   0.00000   0.00000   0.00000   0.00000
       z     0.00000   0.00000   0.00000   0.00000   0.00000   0.00000
-------------------------------------------------------------------------------


  Piezoelectric Stress Matrix: (Units=10**-11 C/N)

-------------------------------------------------------------------------------
  Indices      1         2         3         4         5         6    
-------------------------------------------------------------------------------
       x     0.00000   0.00000   0.00000   0.00000   0.00000   0.00000
       y     0.00000   0.00000   0.00000   0.00000   0.00000   0.00000
       z     0.00000   0.00000   0.00000   0.00000   0.00000   0.00000
-------------------------------------------------------------------------------


  Static dielectric constant tensor : 

-------------------------------------------------------------------------------
              x         y         z
-------------------------------------------------------------------------------
       x     4.14785   0.00000   0.00000
       y     0.00000   4.28229   0.00000
       z     0.00000   0.00000   3.92578
--------------------------------------------------------------------------------

  High frequency dielectric constant tensor : 

-------------------------------------------------------------------------------
              x         y         z
-------------------------------------------------------------------------------
       x     1.62526   0.00000   0.00000
       y     0.00000   1.62714   0.00000
       z     0.00000   0.00000   1.62293
-------------------------------------------------------------------------------

  Static refractive indices : 

-------------------------------------------------------------------------------
    1 =    1.98136      2 =    2.03663      3 =    2.06937
-------------------------------------------------------------------------------

  High frequency refractive indices : 

-------------------------------------------------------------------------------
    1 =    1.27394      2 =    1.27486      3 =    1.27559
-------------------------------------------------------------------------------


  Time to end of optimisation =       0.1081 seconds


  Peak dynamic memory used =       0.73 MB 


  Timing analysis for GULP :

--------------------------------------------------------------------------------
  Task / Subroutine                                          Time (Seconds)
--------------------------------------------------------------------------------
  Calculation of reciprocal space energy and derivatives          0.0030
  Calculation of reciprocal space energy using symmetry           0.0115
  Calculation of real space energy and derivatives                0.0133
  Calculation of real space energy using symmetry                 0.0750
  Symmetry generation of equivalent positions                     0.0005
--------------------------------------------------------------------------------
  Total CPU time                                                  0.1082
--------------------------------------------------------------------------------


  CIF file written as perov.cif                                               


  Job Finished at 09:36.01  6th April      2017                               

