********************************************************************************
*                       GENERAL UTILITY LATTICE PROGRAM                        *
*                                 Julian Gale                                  *
*                      Nanochemistry Research Institute                        *
*                           Department of Chemistry                            *
*                    Curtin University, Western Australia                      *
********************************************************************************
* Version = 4.3.2 * Last modified =  3rd March 2015                            *
********************************************************************************
*  optimise     - perform optimisation run                                     *
*  cell_only    - only optimise unit cell                                      *
*  property     - calculate properties for final geometry                      *
********************************************************************************

  Job Started  at 09:36.00  6th April      2017                               

  Number of CPUs =     1


  Total number of configurations input =   1

********************************************************************************
*  Input for Configuration =   1                                               *
********************************************************************************

  Formula = K4Ca4F12                                                    

  Number of irreducible atoms/shells =       6


  Total number atoms/shells =      32

  Dimensionality = 3               :  Bulk   


  Symmetry :

  Crystal family                   :  Orthorhombic
  Crystal class  (Groth - 1921)    :  Orthorhombic Bipyramidal             

  Space group (centrosymmetric)    :  P N M A         

  Patterson group                  :  P m m m  

  Cartesian lattice vectors (Angstroms) :

        6.223500    0.000000    0.000000
        0.000000    8.710300    0.000000
        0.000000    0.000000    6.118000

  Cell parameters (Angstroms/Degrees):

  a =       6.2235    alpha =  90.0000
  b =       8.7103    beta  =  90.0000
  c =       6.1180    gamma =  90.0000

  Initial cell volume =         331.647921 Angs**3

  Temperature of configuration =  0.000     K 

  Pressure of configuration =         0.000 GPa 

  Fractional coordinates of asymmetric unit :

--------------------------------------------------------------------------------
   No.  Atomic       x           y          z         Charge      Occupancy
        Label      (Frac)      (Frac)     (Frac)        (e)         (Frac)  
--------------------------------------------------------------------------------
      1 K     c    0.042000    0.250000    0.490600     1.00000    1.000000    
      2 Ca    c    0.000000    0.000000    0.000000     2.50000    1.000000    
      3 F     c    0.471500    0.250000    0.581200     0.37800    1.000000    
      4 F     c    0.291600    0.040400    0.206800     0.37800    1.000000    
      5 F     s    0.471500    0.250000    0.581200    -1.54467    1.000000    
      6 F     s    0.291600    0.040400    0.206800    -1.54467    1.000000    
--------------------------------------------------------------------------------



********************************************************************************
*  General input information                                                   *
********************************************************************************

  Species output for all configurations : 

--------------------------------------------------------------------------------
  Species    Type    Atomic    Atomic    Charge       Radii (Angs)     Library
                     Number     Mass       (e)     Cova   Ionic  VDW   Symbol
--------------------------------------------------------------------------------
    K        Core       19      39.10   1.000000   1.330  0.000  2.800          
    Ca       Core       20      40.08   2.500000   0.990  0.000  2.750          
    F        Core        9      19.00   0.378000   0.710  0.000  1.300          
    F        Shell       9       0.00  -1.544667   0.710  0.000  1.300          
--------------------------------------------------------------------------------


  Lattice summation method               =    Ewald          (3-D)
                                         =    Parry          (2-D)
                                         =    Saunders et al (1-D)
  Accuracy factor for lattice sums       =   12.000


  Time limit = Infinity

  Maximum range for interatomic potentials =    100000.000000 Angstroms

  General interatomic potentials :

--------------------------------------------------------------------------------
Atom  Types   Potential         A         B         C         D     Cutoffs(Ang)
  1     2                                                            Min    Max 
--------------------------------------------------------------------------------
K    c K    c Buckingham    0.219E+04 0.192      0.00      0.00     0.000 10.000
Ca   c F    s Buckingham    0.148E+04 0.266      0.00      0.00     0.000 10.000
F    s F    s Buckingham     912.     0.271      13.8      0.00     0.000 10.000
K    c F    s Buckingham    0.352E+04 0.267      0.00      0.00     0.000 10.000
F    c F    s Spring (c-s)   30.6      0.00      0.00      0.00     0.000  0.800
--------------------------------------------------------------------------------

********************************************************************************
*  Output for configuration   1                                                *
********************************************************************************


  Components of energy : 

--------------------------------------------------------------------------------
  Interatomic potentials     =          10.66009013 eV
  Monopole - monopole (real) =        -102.79552876 eV
  Monopole - monopole (recip)=        -125.77628000 eV
  Monopole - monopole (total)=        -228.57180876 eV
--------------------------------------------------------------------------------
  Total lattice energy       =        -217.91171863 eV
--------------------------------------------------------------------------------
  Total lattice energy       =          -21025.1498 kJ/(mole unit cells)
--------------------------------------------------------------------------------


  Number of variables =        3

  Maximum number of calculations  =          1000
  Maximum Hessian update interval =            10
  Maximum step size               =   1.000000000
  Maximum parameter tolerance     =   0.000010000
  Maximum function  tolerance     =   0.000010000
  Maximum gradient  tolerance     =   0.001000000
  Maximum gradient  component     =   0.010000000

  Symmetry constrained optimisation

  Symmetry used for second derivatives

  Cell parameters to be optimised using strains

  Newton-Raphson optimiser to be used

  BFGS hessian update to be used

  Start of bulk optimisation :

  Cycle:      0 Energy:      -217.911719  Gnorm:     24.840096  CPU:    0.008
  ** Hessian calculated **
  Cycle:      1 Energy:      -226.948224  Gnorm:      2.828150  CPU:    0.018
  Cycle:      2 Energy:      -227.020462  Gnorm:      1.709845  CPU:    0.025
  Cycle:      3 Energy:      -227.047606  Gnorm:      0.056382  CPU:    0.031
  Cycle:      4 Energy:      -227.047668  Gnorm:      0.003142  CPU:    0.037


  **** Optimisation achieved ****


  Final energy =    -227.04766833 eV
  Final Gnorm  =       0.00041922

  Components of energy : 

--------------------------------------------------------------------------------
  Interatomic potentials     =          31.07656261 eV
  Monopole - monopole (real) =        -116.08111940 eV
  Monopole - monopole (recip)=        -142.04311154 eV
  Monopole - monopole (total)=        -258.12423094 eV
--------------------------------------------------------------------------------
  Total lattice energy       =        -227.04766833 eV
--------------------------------------------------------------------------------
  Total lattice energy       =          -21906.6293 kJ/(mole unit cells)
--------------------------------------------------------------------------------

  Final asymmetric unit coordinates :

--------------------------------------------------------------------------------
   No.  Atomic        x           y           z         Radius
        Label       (Frac)      (Frac)      (Frac)       (Angs) 
--------------------------------------------------------------------------------
     1  K     c     0.042000    0.250000    0.490600    0.000000
     2  Ca    c     0.000000    0.000000    0.000000    0.000000
     3  F     c     0.471500    0.250000    0.581200    0.000000
     4  F     c     0.291600    0.040400    0.206800    0.000000
     5  F     s     0.471500    0.250000    0.581200    0.000000
     6  F     s     0.291600    0.040400    0.206800    0.000000
--------------------------------------------------------------------------------

  Final Cartesian lattice vectors (Angstroms) :

        5.530426    0.000000    0.000000
        0.000000    7.668406    0.000000
        0.000000    0.000000    5.429313


  Final cell parameters and derivatives :

--------------------------------------------------------------------------------
       a            5.530426 Angstrom     dE/de1(xx)    -0.000725 eV/strain
       b            7.668406 Angstrom     dE/de2(yy)     0.000046 eV/strain
       c            5.429313 Angstrom     dE/de3(zz)     0.001027 eV/strain
       alpha       90.000000 Degrees      dE/de4(yz)     0.000000 eV/strain
       beta        90.000000 Degrees      dE/de5(xz)     0.000000 eV/strain
       gamma       90.000000 Degrees      dE/de6(xy)     0.000000 eV/strain
--------------------------------------------------------------------------------

  Primitive cell volume =           230.254731 Angs**3

  Density of cell =      3.928446 g/cm**3

  Non-primitive cell volume =           230.254731 Angs**3


  Final internal derivatives :

--------------------------------------------------------------------------------
   No.  Atomic          a             b             c           Radius
        Label          (eV)          (eV)          (eV)        (eV/Angs)
--------------------------------------------------------------------------------
      1 K     c       0.000000      0.000000      0.000000      0.000000
      2 Ca    c       0.000000      0.000000      0.000000      0.000000
      3 F     c       0.000000      0.000000      0.000000      0.000000
      4 F     c       0.000000      0.000000      0.000000      0.000000
      5 F     s       0.000000      0.000000      0.000000      0.000000
      6 F     s       0.000000      0.000000      0.000000      0.000000
--------------------------------------------------------------------------------
  Maximum abs         0.000000      0.000000      0.000000      0.000000
--------------------------------------------------------------------------------


  Born effective charge tensors : 

-------------------------------------------------------------------------------
  Atom             x           y             z
-------------------------------------------------------------------------------
   1 K     x       0.7606      0.0000     -0.0721
           y       0.0000      0.8224      0.0000
           z      -0.0655      0.0000      0.7494
-------------------------------------------------------------------------------
   2 Ca    x       2.3559      0.0149     -0.0669
           y      -0.0147      2.3038     -0.0547
           z       0.0307      0.0655      2.3573
-------------------------------------------------------------------------------
   3 F     x      -0.8849      0.0000      0.0338
           y       0.0000     -1.3194      0.0000
           z       0.0643      0.0000     -0.8584
-------------------------------------------------------------------------------
   4 F     x      -1.1158      0.0294     -0.2273
           y       0.0354     -0.9034     -0.0192
           z      -0.2237     -0.0169     -1.1241
-------------------------------------------------------------------------------




  Elastic Constant Matrix: (Units=GPa)

-------------------------------------------------------------------------------
  Indices      1         2         3         4         5         6    
-------------------------------------------------------------------------------
       1    189.8439   89.0100   78.0483    0.0000    0.0000    0.0000
       2     89.0100  185.8814  101.8835    0.0000    0.0000    0.0000
       3     78.0483  101.8835  202.0490    0.0000    0.0000    0.0000
       4      0.0000    0.0000    0.0000   70.5882    0.0000    0.0000
       5      0.0000    0.0000    0.0000    0.0000   39.0528    0.0000
       6      0.0000    0.0000    0.0000    0.0000    0.0000   81.8950
-------------------------------------------------------------------------------


  Elastic Compliance Matrix: (Units=1/GPa)

-------------------------------------------------------------------------------
  Indices      1         2         3         4         5         6    
-------------------------------------------------------------------------------
       1    0.007074 -0.002611 -0.001416  0.000000  0.000000  0.000000
       2   -0.002611  0.008399 -0.003226  0.000000  0.000000  0.000000
       3   -0.001416 -0.003226  0.007123  0.000000  0.000000  0.000000
       4    0.000000  0.000000  0.000000  0.014167  0.000000  0.000000
       5    0.000000  0.000000  0.000000  0.000000  0.025606  0.000000
       6    0.000000  0.000000  0.000000  0.000000  0.000000  0.012211
-------------------------------------------------------------------------------

  Mechanical properties :

-------------------------------------------------------------------------------
  Convention :                    Reuss         Voigt         Hill
-------------------------------------------------------------------------------
  Bulk  Modulus (GPa)     =     123.62874     123.96198     123.79536
  Shear Modulus (GPa)     =      54.47674      58.89604      56.68639
-------------------------------------------------------------------------------
  Velocity S-wave (km/s)  =       3.72388       3.87198       3.79865
  Velocity P-wave (km/s)  =       7.06823       7.17945       7.12406
-------------------------------------------------------------------------------
  Compressibility (1/GPa) =    0.00808873
-------------------------------------------------------------------------------
  Stress axis :                     x             y             z
-------------------------------------------------------------------------------
  Youngs Moduli (GPa)     =     141.36501     119.06753     140.38978
-------------------------------------------------------------------------------
  Poissons Ratio (x)      =                     0.31093       0.19876
  Poissons Ratio (y)      =       0.36916                     0.45294
  Poissons Ratio (z)      =       0.20014       0.38414
-------------------------------------------------------------------------------


  Piezoelectric Strain Matrix: (Units=C/m**2)

-------------------------------------------------------------------------------
  Indices      1         2         3         4         5         6    
-------------------------------------------------------------------------------
       x     0.00000   0.00000   0.00000   0.00000   0.00000   0.00000
       y     0.00000   0.00000   0.00000   0.00000   0.00000   0.00000
       z     0.00000   0.00000   0.00000   0.00000   0.00000   0.00000
-------------------------------------------------------------------------------


  Piezoelectric Stress Matrix: (Units=10**-11 C/N)

-------------------------------------------------------------------------------
  Indices      1         2         3         4         5         6    
-------------------------------------------------------------------------------
       x     0.00000   0.00000   0.00000   0.00000   0.00000   0.00000
       y     0.00000   0.00000   0.00000   0.00000   0.00000   0.00000
       z     0.00000   0.00000   0.00000   0.00000   0.00000   0.00000
-------------------------------------------------------------------------------


  Static dielectric constant tensor : 

-------------------------------------------------------------------------------
              x         y         z
-------------------------------------------------------------------------------
       x     5.13973   0.00000   0.00000
       y     0.00000   4.70128   0.00000
       z     0.00000   0.00000   4.89260
--------------------------------------------------------------------------------

  High frequency dielectric constant tensor : 

-------------------------------------------------------------------------------
              x         y         z
-------------------------------------------------------------------------------
       x     1.72016   0.00000   0.00000
       y     0.00000   1.72231   0.00000
       z     0.00000   0.00000   1.71767
-------------------------------------------------------------------------------

  Static refractive indices : 

-------------------------------------------------------------------------------
    1 =    2.16824      2 =    2.21192      3 =    2.26710
-------------------------------------------------------------------------------

  High frequency refractive indices : 

-------------------------------------------------------------------------------
    1 =    1.31060      2 =    1.31155      3 =    1.31237
-------------------------------------------------------------------------------


  Time to end of optimisation =       0.0601 seconds


  Peak dynamic memory used =       0.73 MB 


  Timing analysis for GULP :

--------------------------------------------------------------------------------
  Task / Subroutine                                          Time (Seconds)
--------------------------------------------------------------------------------
  Calculation of reciprocal space energy and derivatives          0.0027
  Calculation of reciprocal space energy using symmetry           0.0050
  Calculation of real space energy and derivatives                0.0131
  Calculation of real space energy using symmetry                 0.0344
  Symmetry generation of equivalent positions                     0.0004
--------------------------------------------------------------------------------
  Total CPU time                                                  0.0602
--------------------------------------------------------------------------------


  CIF file written as perov.cif                                               


  Job Finished at 09:36.00  6th April      2017                               

