********************************************************************************
*                       GENERAL UTILITY LATTICE PROGRAM                        *
*                                 Julian Gale                                  *
*                      Nanochemistry Research Institute                        *
*                           Department of Chemistry                            *
*                    Curtin University, Western Australia                      *
********************************************************************************
* Version = 4.3.2 * Last modified =  3rd March 2015                            *
********************************************************************************
*  optimise     - perform optimisation run                                     *
*  cell_only    - only optimise unit cell                                      *
*  property     - calculate properties for final geometry                      *
********************************************************************************

  Job Started  at 09:36.01  6th April      2017                               

  Number of CPUs =     1


  Total number of configurations input =   1

********************************************************************************
*  Input for Configuration =   1                                               *
********************************************************************************

  Formula = K4Ca4F12                                                    

  Number of irreducible atoms/shells =       6


  Total number atoms/shells =      32

  Dimensionality = 3               :  Bulk   


  Symmetry :

  Crystal family                   :  Orthorhombic
  Crystal class  (Groth - 1921)    :  Orthorhombic Bipyramidal             

  Space group (centrosymmetric)    :  P N M A         

  Patterson group                  :  P m m m  

  Cartesian lattice vectors (Angstroms) :

        6.223500    0.000000    0.000000
        0.000000    8.710300    0.000000
        0.000000    0.000000    6.118000

  Cell parameters (Angstroms/Degrees):

  a =       6.2235    alpha =  90.0000
  b =       8.7103    beta  =  90.0000
  c =       6.1180    gamma =  90.0000

  Initial cell volume =         331.647921 Angs**3

  Temperature of configuration =  0.000     K 

  Pressure of configuration =         0.000 GPa 

  Fractional coordinates of asymmetric unit :

--------------------------------------------------------------------------------
   No.  Atomic       x           y          z         Charge      Occupancy
        Label      (Frac)      (Frac)     (Frac)        (e)         (Frac)  
--------------------------------------------------------------------------------
      1 K     c    0.042000    0.250000    0.490600     1.20000    1.000000    
      2 Ca    c    0.000000    0.000000    0.000000     1.80000    1.000000    
      3 F     c    0.471500    0.250000    0.581200     0.37800    1.000000    
      4 F     c    0.291600    0.040400    0.206800     0.37800    1.000000    
      5 F     s    0.471500    0.250000    0.581200    -1.37800    1.000000    
      6 F     s    0.291600    0.040400    0.206800    -1.37800    1.000000    
--------------------------------------------------------------------------------



********************************************************************************
*  General input information                                                   *
********************************************************************************

  Species output for all configurations : 

--------------------------------------------------------------------------------
  Species    Type    Atomic    Atomic    Charge       Radii (Angs)     Library
                     Number     Mass       (e)     Cova   Ionic  VDW   Symbol
--------------------------------------------------------------------------------
    K        Core       19      39.10   1.200000   1.330  0.000  2.800          
    Ca       Core       20      40.08   1.800000   0.990  0.000  2.750          
    F        Core        9      19.00   0.378000   0.710  0.000  1.300          
    F        Shell       9       0.00  -1.378000   0.710  0.000  1.300          
--------------------------------------------------------------------------------


  Lattice summation method               =    Ewald          (3-D)
                                         =    Parry          (2-D)
                                         =    Saunders et al (1-D)
  Accuracy factor for lattice sums       =   12.000


  Time limit = Infinity

  Maximum range for interatomic potentials =    100000.000000 Angstroms

  General interatomic potentials :

--------------------------------------------------------------------------------
Atom  Types   Potential         A         B         C         D     Cutoffs(Ang)
  1     2                                                            Min    Max 
--------------------------------------------------------------------------------
K    c K    c Buckingham    0.219E+04 0.192      0.00      0.00     0.000 10.000
Ca   c F    s Buckingham    0.148E+04 0.266      0.00      0.00     0.000 10.000
F    s F    s Buckingham     912.     0.271      13.8      0.00     0.000 10.000
K    c F    s Buckingham    0.352E+04 0.267      0.00      0.00     0.000 10.000
F    c F    s Spring (c-s)   24.3      0.00      0.00      0.00     0.000  0.800
--------------------------------------------------------------------------------

********************************************************************************
*  Output for configuration   1                                                *
********************************************************************************


  Components of energy : 

--------------------------------------------------------------------------------
  Interatomic potentials     =          10.66009013 eV
  Monopole - monopole (real) =         -69.16799036 eV
  Monopole - monopole (recip)=         -85.27051403 eV
  Monopole - monopole (total)=        -154.43850439 eV
--------------------------------------------------------------------------------
  Total lattice energy       =        -143.77841426 eV
--------------------------------------------------------------------------------
  Total lattice energy       =          -13872.4191 kJ/(mole unit cells)
--------------------------------------------------------------------------------


  Number of variables =        3

  Maximum number of calculations  =          1000
  Maximum Hessian update interval =            10
  Maximum step size               =   1.000000000
  Maximum parameter tolerance     =   0.000010000
  Maximum function  tolerance     =   0.000010000
  Maximum gradient  tolerance     =   0.001000000
  Maximum gradient  component     =   0.010000000

  Symmetry constrained optimisation

  Symmetry used for second derivatives

  Cell parameters to be optimised using strains

  Newton-Raphson optimiser to be used

  BFGS hessian update to be used

  Start of bulk optimisation :

  Cycle:      0 Energy:      -143.778414  Gnorm:     10.572544  CPU:    0.007
  ** Hessian calculated **
  Cycle:      1 Energy:      -145.568304  Gnorm:      2.410247  CPU:    0.013
  Cycle:      2 Energy:      -145.626593  Gnorm:      0.717636  CPU:    0.019
  Cycle:      3 Energy:      -145.634322  Gnorm:      0.169122  CPU:    0.025
  Cycle:      4 Energy:      -145.634983  Gnorm:      0.002847  CPU:    0.032


  **** Optimisation achieved ****


  Final energy =    -145.63498323 eV
  Final Gnorm  =       0.00004562

  Components of energy : 

--------------------------------------------------------------------------------
  Interatomic potentials     =          18.70884408 eV
  Monopole - monopole (real) =         -73.60116952 eV
  Monopole - monopole (recip)=         -90.74265780 eV
  Monopole - monopole (total)=        -164.34382732 eV
--------------------------------------------------------------------------------
  Total lattice energy       =        -145.63498323 eV
--------------------------------------------------------------------------------
  Total lattice energy       =          -14051.5496 kJ/(mole unit cells)
--------------------------------------------------------------------------------

  Final asymmetric unit coordinates :

--------------------------------------------------------------------------------
   No.  Atomic        x           y           z         Radius
        Label       (Frac)      (Frac)      (Frac)       (Angs) 
--------------------------------------------------------------------------------
     1  K     c     0.042000    0.250000    0.490600    0.000000
     2  Ca    c     0.000000    0.000000    0.000000    0.000000
     3  F     c     0.471500    0.250000    0.581200    0.000000
     4  F     c     0.291600    0.040400    0.206800    0.000000
     5  F     s     0.471500    0.250000    0.581200    0.000000
     6  F     s     0.291600    0.040400    0.206800    0.000000
--------------------------------------------------------------------------------

  Final Cartesian lattice vectors (Angstroms) :

        5.868923    0.000000    0.000000
        0.000000    8.141853    0.000000
        0.000000    0.000000    5.759135


  Final cell parameters and derivatives :

--------------------------------------------------------------------------------
       a            5.868923 Angstrom     dE/de1(xx)     0.000111 eV/strain
       b            8.141853 Angstrom     dE/de2(yy)     0.000080 eV/strain
       c            5.759135 Angstrom     dE/de3(zz)     0.000007 eV/strain
       alpha       90.000000 Degrees      dE/de4(yz)     0.000000 eV/strain
       beta        90.000000 Degrees      dE/de5(xz)     0.000000 eV/strain
       gamma       90.000000 Degrees      dE/de6(xy)     0.000000 eV/strain
--------------------------------------------------------------------------------

  Primitive cell volume =           275.193982 Angs**3

  Density of cell =      3.286930 g/cm**3

  Non-primitive cell volume =           275.193982 Angs**3


  Final internal derivatives :

--------------------------------------------------------------------------------
   No.  Atomic          a             b             c           Radius
        Label          (eV)          (eV)          (eV)        (eV/Angs)
--------------------------------------------------------------------------------
      1 K     c       0.000000      0.000000      0.000000      0.000000
      2 Ca    c       0.000000      0.000000      0.000000      0.000000
      3 F     c       0.000000      0.000000      0.000000      0.000000
      4 F     c       0.000000      0.000000      0.000000      0.000000
      5 F     s       0.000000      0.000000      0.000000      0.000000
      6 F     s       0.000000      0.000000      0.000000      0.000000
--------------------------------------------------------------------------------
  Maximum abs         0.000000      0.000000      0.000000      0.000000
--------------------------------------------------------------------------------


  Born effective charge tensors : 

-------------------------------------------------------------------------------
  Atom             x           y             z
-------------------------------------------------------------------------------
   1 K     x       1.1178      0.0000     -0.0363
           y       0.0000      1.1607      0.0000
           z      -0.0397      0.0000      1.1071
-------------------------------------------------------------------------------
   2 Ca    x       1.5491      0.0120     -0.0138
           y       0.0041      1.5161     -0.0044
           z       0.0012      0.0152      1.5491
-------------------------------------------------------------------------------
   3 F     x      -0.8512      0.0000      0.0179
           y       0.0000     -0.9420      0.0000
           z       0.0266      0.0000     -0.8284
-------------------------------------------------------------------------------
   4 F     x      -0.9078      0.0212     -0.0502
           y       0.0275     -0.8674     -0.0260
           z      -0.0486     -0.0269     -0.9139
-------------------------------------------------------------------------------




  Elastic Constant Matrix: (Units=GPa)

-------------------------------------------------------------------------------
  Indices      1         2         3         4         5         6    
-------------------------------------------------------------------------------
       1    110.1926   47.3753   49.7708    0.0000    0.0000    0.0000
       2     47.3753  117.6547   51.6190    0.0000    0.0000    0.0000
       3     49.7708   51.6190  116.7428    0.0000    0.0000    0.0000
       4      0.0000    0.0000    0.0000   37.1339    0.0000    0.0000
       5      0.0000    0.0000    0.0000    0.0000   31.4481    0.0000
       6      0.0000    0.0000    0.0000    0.0000    0.0000   42.5192
-------------------------------------------------------------------------------


  Elastic Compliance Matrix: (Units=1/GPa)

-------------------------------------------------------------------------------
  Indices      1         2         3         4         5         6    
-------------------------------------------------------------------------------
       1    0.012167 -0.003255 -0.003748  0.000000  0.000000  0.000000
       2   -0.003255  0.011416 -0.003660  0.000000  0.000000  0.000000
       3   -0.003748 -0.003660  0.011782  0.000000  0.000000  0.000000
       4    0.000000  0.000000  0.000000  0.026930  0.000000  0.000000
       5    0.000000  0.000000  0.000000  0.000000  0.031798  0.000000
       6    0.000000  0.000000  0.000000  0.000000  0.000000  0.023519
-------------------------------------------------------------------------------

  Mechanical properties :

-------------------------------------------------------------------------------
  Convention :                    Reuss         Voigt         Hill
-------------------------------------------------------------------------------
  Bulk  Modulus (GPa)     =      71.22883      71.34672      71.28777
  Shear Modulus (GPa)     =      34.81465      35.27523      35.04494
-------------------------------------------------------------------------------
  Velocity S-wave (km/s)  =       3.25451       3.27597       3.26526
  Velocity P-wave (km/s)  =       5.98271       6.00129       5.99201
-------------------------------------------------------------------------------
  Compressibility (1/GPa) =    0.01403926
-------------------------------------------------------------------------------
  Stress axis :                     x             y             z
-------------------------------------------------------------------------------
  Youngs Moduli (GPa)     =      82.18735      87.59764      84.87502
-------------------------------------------------------------------------------
  Poissons Ratio (x)      =                     0.28513       0.31812
  Poissons Ratio (y)      =       0.26751                     0.31064
  Poissons Ratio (z)      =       0.30804       0.32060
-------------------------------------------------------------------------------


  Piezoelectric Strain Matrix: (Units=C/m**2)

-------------------------------------------------------------------------------
  Indices      1         2         3         4         5         6    
-------------------------------------------------------------------------------
       x     0.00000   0.00000   0.00000   0.00000   0.00000   0.00000
       y     0.00000   0.00000   0.00000   0.00000   0.00000   0.00000
       z     0.00000   0.00000   0.00000   0.00000   0.00000   0.00000
-------------------------------------------------------------------------------


  Piezoelectric Stress Matrix: (Units=10**-11 C/N)

-------------------------------------------------------------------------------
  Indices      1         2         3         4         5         6    
-------------------------------------------------------------------------------
       x     0.00000   0.00000   0.00000   0.00000   0.00000   0.00000
       y     0.00000   0.00000   0.00000   0.00000   0.00000   0.00000
       z     0.00000   0.00000   0.00000   0.00000   0.00000   0.00000
-------------------------------------------------------------------------------


  Static dielectric constant tensor : 

-------------------------------------------------------------------------------
              x         y         z
-------------------------------------------------------------------------------
       x     4.29118   0.00000   0.00000
       y     0.00000   4.80373   0.00000
       z     0.00000   0.00000   4.04374
--------------------------------------------------------------------------------

  High frequency dielectric constant tensor : 

-------------------------------------------------------------------------------
              x         y         z
-------------------------------------------------------------------------------
       x     1.60027   0.00000   0.00000
       y     0.00000   1.60224   0.00000
       z     0.00000   0.00000   1.59798
-------------------------------------------------------------------------------

  Static refractive indices : 

-------------------------------------------------------------------------------
    1 =    2.01090      2 =    2.07152      3 =    2.19174
-------------------------------------------------------------------------------

  High frequency refractive indices : 

-------------------------------------------------------------------------------
    1 =    1.26411      2 =    1.26502      3 =    1.26580
-------------------------------------------------------------------------------


  Time to end of optimisation =       0.0549 seconds


  Peak dynamic memory used =       0.73 MB 


  Timing analysis for GULP :

--------------------------------------------------------------------------------
  Task / Subroutine                                          Time (Seconds)
--------------------------------------------------------------------------------
  Calculation of reciprocal space energy and derivatives          0.0027
  Calculation of reciprocal space energy using symmetry           0.0045
  Calculation of real space energy and derivatives                0.0128
  Calculation of real space energy using symmetry                 0.0303
  Symmetry generation of equivalent positions                     0.0004
--------------------------------------------------------------------------------
  Total CPU time                                                  0.0550
--------------------------------------------------------------------------------


  CIF file written as perov.cif                                               


  Job Finished at 09:36.01  6th April      2017                               

