********************************************************************************
*                       GENERAL UTILITY LATTICE PROGRAM                        *
*                                 Julian Gale                                  *
*                      Nanochemistry Research Institute                        *
*                           Department of Chemistry                            *
*                    Curtin University, Western Australia                      *
********************************************************************************
* Version = 4.3.2 * Last modified =  3rd March 2015                            *
********************************************************************************
*  optimise     - perform optimisation run                                     *
*  cell_only    - only optimise unit cell                                      *
*  property     - calculate properties for final geometry                      *
********************************************************************************

  Job Started  at 09:36.00  6th April      2017                               

  Number of CPUs =     1


  Total number of configurations input =   1

********************************************************************************
*  Input for Configuration =   1                                               *
********************************************************************************

  Formula = K4Ca4F12                                                    

  Number of irreducible atoms/shells =       6


  Total number atoms/shells =      32

  Dimensionality = 3               :  Bulk   


  Symmetry :

  Crystal family                   :  Orthorhombic
  Crystal class  (Groth - 1921)    :  Orthorhombic Bipyramidal             

  Space group (centrosymmetric)    :  P N M A         

  Patterson group                  :  P m m m  

  Cartesian lattice vectors (Angstroms) :

        6.223500    0.000000    0.000000
        0.000000    8.710300    0.000000
        0.000000    0.000000    6.118000

  Cell parameters (Angstroms/Degrees):

  a =       6.2235    alpha =  90.0000
  b =       8.7103    beta  =  90.0000
  c =       6.1180    gamma =  90.0000

  Initial cell volume =         331.647921 Angs**3

  Temperature of configuration =  0.000     K 

  Pressure of configuration =         0.000 GPa 

  Fractional coordinates of asymmetric unit :

--------------------------------------------------------------------------------
   No.  Atomic       x           y          z         Charge      Occupancy
        Label      (Frac)      (Frac)     (Frac)        (e)         (Frac)  
--------------------------------------------------------------------------------
      1 K     c    0.042000    0.250000    0.490600     1.10000    1.000000    
      2 Ca    c    0.000000    0.000000    0.000000     1.80000    1.000000    
      3 F     c    0.471500    0.250000    0.581200     0.37800    1.000000    
      4 F     c    0.291600    0.040400    0.206800     0.37800    1.000000    
      5 F     s    0.471500    0.250000    0.581200    -1.34467    1.000000    
      6 F     s    0.291600    0.040400    0.206800    -1.34467    1.000000    
--------------------------------------------------------------------------------



********************************************************************************
*  General input information                                                   *
********************************************************************************

  Species output for all configurations : 

--------------------------------------------------------------------------------
  Species    Type    Atomic    Atomic    Charge       Radii (Angs)     Library
                     Number     Mass       (e)     Cova   Ionic  VDW   Symbol
--------------------------------------------------------------------------------
    K        Core       19      39.10   1.100000   1.330  0.000  2.800          
    Ca       Core       20      40.08   1.800000   0.990  0.000  2.750          
    F        Core        9      19.00   0.378000   0.710  0.000  1.300          
    F        Shell       9       0.00  -1.344667   0.710  0.000  1.300          
--------------------------------------------------------------------------------


  Lattice summation method               =    Ewald          (3-D)
                                         =    Parry          (2-D)
                                         =    Saunders et al (1-D)
  Accuracy factor for lattice sums       =   12.000


  Time limit = Infinity

  Maximum range for interatomic potentials =    100000.000000 Angstroms

  General interatomic potentials :

--------------------------------------------------------------------------------
Atom  Types   Potential         A         B         C         D     Cutoffs(Ang)
  1     2                                                            Min    Max 
--------------------------------------------------------------------------------
K    c K    c Buckingham    0.219E+04 0.192      0.00      0.00     0.000 10.000
Ca   c F    s Buckingham    0.148E+04 0.266      0.00      0.00     0.000 10.000
F    s F    s Buckingham     912.     0.271      13.8      0.00     0.000 10.000
K    c F    s Buckingham    0.352E+04 0.267      0.00      0.00     0.000 10.000
F    c F    s Spring (c-s)   23.2      0.00      0.00      0.00     0.000  0.800
--------------------------------------------------------------------------------

********************************************************************************
*  Output for configuration   1                                                *
********************************************************************************


  Components of energy : 

--------------------------------------------------------------------------------
  Interatomic potentials     =          10.66009013 eV
  Monopole - monopole (real) =         -65.62132273 eV
  Monopole - monopole (recip)=         -80.53554299 eV
  Monopole - monopole (total)=        -146.15686572 eV
--------------------------------------------------------------------------------
  Total lattice energy       =        -135.49677559 eV
--------------------------------------------------------------------------------
  Total lattice energy       =          -13073.3676 kJ/(mole unit cells)
--------------------------------------------------------------------------------


  Number of variables =        3

  Maximum number of calculations  =          1000
  Maximum Hessian update interval =            10
  Maximum step size               =   1.000000000
  Maximum parameter tolerance     =   0.000010000
  Maximum function  tolerance     =   0.000010000
  Maximum gradient  tolerance     =   0.001000000
  Maximum gradient  component     =   0.010000000

  Symmetry constrained optimisation

  Symmetry used for second derivatives

  Cell parameters to be optimised using strains

  Newton-Raphson optimiser to be used

  BFGS hessian update to be used

  Start of bulk optimisation :

  Cycle:      0 Energy:      -135.496776  Gnorm:      8.978730  CPU:    0.007
  ** Hessian calculated **
  Cycle:      1 Energy:      -136.817367  Gnorm:      1.788839  CPU:    0.012
  Cycle:      2 Energy:      -136.853127  Gnorm:      0.471694  CPU:    0.018
  Cycle:      3 Energy:      -136.856554  Gnorm:      0.097225  CPU:    0.025
  Cycle:      4 Energy:      -136.856724  Gnorm:      0.000948  CPU:    0.031


  **** Optimisation achieved ****


  Final energy =    -136.85672437 eV
  Final Gnorm  =       0.00002077

  Components of energy : 

--------------------------------------------------------------------------------
  Interatomic potentials     =          17.42887676 eV
  Monopole - monopole (real) =         -69.26799758 eV
  Monopole - monopole (recip)=         -85.01760355 eV
  Monopole - monopole (total)=        -154.28560112 eV
--------------------------------------------------------------------------------
  Total lattice energy       =        -136.85672437 eV
--------------------------------------------------------------------------------
  Total lattice energy       =          -13204.5819 kJ/(mole unit cells)
--------------------------------------------------------------------------------

  Final asymmetric unit coordinates :

--------------------------------------------------------------------------------
   No.  Atomic        x           y           z         Radius
        Label       (Frac)      (Frac)      (Frac)       (Angs) 
--------------------------------------------------------------------------------
     1  K     c     0.042000    0.250000    0.490600    0.000000
     2  Ca    c     0.000000    0.000000    0.000000    0.000000
     3  F     c     0.471500    0.250000    0.581200    0.000000
     4  F     c     0.291600    0.040400    0.206800    0.000000
     5  F     s     0.471500    0.250000    0.581200    0.000000
     6  F     s     0.291600    0.040400    0.206800    0.000000
--------------------------------------------------------------------------------

  Final Cartesian lattice vectors (Angstroms) :

        5.915552    0.000000    0.000000
        0.000000    8.207564    0.000000
        0.000000    0.000000    5.806345


  Final cell parameters and derivatives :

--------------------------------------------------------------------------------
       a            5.915552 Angstrom     dE/de1(xx)    -0.000025 eV/strain
       b            8.207564 Angstrom     dE/de2(yy)    -0.000051 eV/strain
       c            5.806345 Angstrom     dE/de3(zz)    -0.000025 eV/strain
       alpha       90.000000 Degrees      dE/de4(yz)     0.000000 eV/strain
       beta        90.000000 Degrees      dE/de5(xz)     0.000000 eV/strain
       gamma       90.000000 Degrees      dE/de6(xy)     0.000000 eV/strain
--------------------------------------------------------------------------------

  Primitive cell volume =           281.911200 Angs**3

  Density of cell =      3.208610 g/cm**3

  Non-primitive cell volume =           281.911200 Angs**3


  Final internal derivatives :

--------------------------------------------------------------------------------
   No.  Atomic          a             b             c           Radius
        Label          (eV)          (eV)          (eV)        (eV/Angs)
--------------------------------------------------------------------------------
      1 K     c       0.000000      0.000000      0.000000      0.000000
      2 Ca    c       0.000000      0.000000      0.000000      0.000000
      3 F     c       0.000000      0.000000      0.000000      0.000000
      4 F     c       0.000000      0.000000      0.000000      0.000000
      5 F     s       0.000000      0.000000      0.000000      0.000000
      6 F     s       0.000000      0.000000      0.000000      0.000000
--------------------------------------------------------------------------------
  Maximum abs         0.000000      0.000000      0.000000      0.000000
--------------------------------------------------------------------------------


  Born effective charge tensors : 

-------------------------------------------------------------------------------
  Atom             x           y             z
-------------------------------------------------------------------------------
   1 K     x       1.0095      0.0000     -0.0366
           y       0.0000      1.0507      0.0000
           z      -0.0392      0.0000      0.9992
-------------------------------------------------------------------------------
   2 Ca    x       1.5662      0.0111     -0.0155
           y       0.0029      1.5338     -0.0061
           z       0.0023      0.0165      1.5664
-------------------------------------------------------------------------------
   3 F     x      -0.8141      0.0000      0.0188
           y       0.0000     -0.9259      0.0000
           z       0.0282      0.0000     -0.7919
-------------------------------------------------------------------------------
   4 F     x      -0.8808      0.0208     -0.0612
           y       0.0263     -0.8293     -0.0238
           z      -0.0596     -0.0243     -0.8869
-------------------------------------------------------------------------------




  Elastic Constant Matrix: (Units=GPa)

-------------------------------------------------------------------------------
  Indices      1         2         3         4         5         6    
-------------------------------------------------------------------------------
       1    101.7323   43.9990   46.3049    0.0000    0.0000    0.0000
       2     43.9990  108.1983   48.2872    0.0000    0.0000    0.0000
       3     46.3049   48.2872  107.0947    0.0000    0.0000    0.0000
       4      0.0000    0.0000    0.0000   34.0211    0.0000    0.0000
       5      0.0000    0.0000    0.0000    0.0000   28.4113    0.0000
       6      0.0000    0.0000    0.0000    0.0000    0.0000   39.1597
-------------------------------------------------------------------------------


  Elastic Compliance Matrix: (Units=1/GPa)

-------------------------------------------------------------------------------
  Indices      1         2         3         4         5         6    
-------------------------------------------------------------------------------
       1    0.013240 -0.003542 -0.004128  0.000000  0.000000  0.000000
       2   -0.003542  0.012518 -0.004113  0.000000  0.000000  0.000000
       3   -0.004128 -0.004113  0.012977  0.000000  0.000000  0.000000
       4    0.000000  0.000000  0.000000  0.029394  0.000000  0.000000
       5    0.000000  0.000000  0.000000  0.000000  0.035197  0.000000
       6    0.000000  0.000000  0.000000  0.000000  0.000000  0.025536
-------------------------------------------------------------------------------

  Mechanical properties :

-------------------------------------------------------------------------------
  Convention :                    Reuss         Voigt         Hill
-------------------------------------------------------------------------------
  Bulk  Modulus (GPa)     =      65.91921      66.02308      65.97114
  Shear Modulus (GPa)     =      31.74917      32.21401      31.98159
-------------------------------------------------------------------------------
  Velocity S-wave (km/s)  =       3.14563       3.16857       3.15712
  Velocity P-wave (km/s)  =       5.80842       5.82781       5.81812
-------------------------------------------------------------------------------
  Compressibility (1/GPa) =    0.01517009
-------------------------------------------------------------------------------
  Stress axis :                     x             y             z
-------------------------------------------------------------------------------
  Youngs Moduli (GPa)     =      75.52590      79.88414      77.06175
-------------------------------------------------------------------------------
  Poissons Ratio (x)      =                     0.28296       0.31809
  Poissons Ratio (y)      =       0.26752                     0.31693
  Poissons Ratio (z)      =       0.31175       0.32854
-------------------------------------------------------------------------------


  Piezoelectric Strain Matrix: (Units=C/m**2)

-------------------------------------------------------------------------------
  Indices      1         2         3         4         5         6    
-------------------------------------------------------------------------------
       x     0.00000   0.00000   0.00000   0.00000   0.00000   0.00000
       y     0.00000   0.00000   0.00000   0.00000   0.00000   0.00000
       z     0.00000   0.00000   0.00000   0.00000   0.00000   0.00000
-------------------------------------------------------------------------------


  Piezoelectric Stress Matrix: (Units=10**-11 C/N)

-------------------------------------------------------------------------------
  Indices      1         2         3         4         5         6    
-------------------------------------------------------------------------------
       x     0.00000   0.00000   0.00000   0.00000   0.00000   0.00000
       y     0.00000   0.00000   0.00000   0.00000   0.00000   0.00000
       z     0.00000   0.00000   0.00000   0.00000   0.00000   0.00000
-------------------------------------------------------------------------------


  Static dielectric constant tensor : 

-------------------------------------------------------------------------------
              x         y         z
-------------------------------------------------------------------------------
       x     4.09489   0.00000   0.00000
       y     0.00000   4.44300   0.00000
       z     0.00000   0.00000   3.85542
--------------------------------------------------------------------------------

  High frequency dielectric constant tensor : 

-------------------------------------------------------------------------------
              x         y         z
-------------------------------------------------------------------------------
       x     1.58620   0.00000   0.00000
       y     0.00000   1.58800   0.00000
       z     0.00000   0.00000   1.58402
-------------------------------------------------------------------------------

  Static refractive indices : 

-------------------------------------------------------------------------------
    1 =    1.96352      2 =    2.02358      3 =    2.10784
-------------------------------------------------------------------------------

  High frequency refractive indices : 

-------------------------------------------------------------------------------
    1 =    1.25858      2 =    1.25945      3 =    1.26016
-------------------------------------------------------------------------------


  Time to end of optimisation =       0.0530 seconds


  Peak dynamic memory used =       0.73 MB 


  Timing analysis for GULP :

--------------------------------------------------------------------------------
  Task / Subroutine                                          Time (Seconds)
--------------------------------------------------------------------------------
  Calculation of reciprocal space energy and derivatives          0.0027
  Calculation of reciprocal space energy using symmetry           0.0044
  Calculation of real space energy and derivatives                0.0126
  Calculation of real space energy using symmetry                 0.0290
  Symmetry generation of equivalent positions                     0.0004
--------------------------------------------------------------------------------
  Total CPU time                                                  0.0530
--------------------------------------------------------------------------------


  CIF file written as perov.cif                                               


  Job Finished at 09:36.01  6th April      2017                               

