********************************************************************************
*                       GENERAL UTILITY LATTICE PROGRAM                        *
*                                 Julian Gale                                  *
*                      Nanochemistry Research Institute                        *
*                           Department of Chemistry                            *
*                    Curtin University, Western Australia                      *
********************************************************************************
* Version = 4.3.2 * Last modified =  3rd March 2015                            *
********************************************************************************
*  optimise     - perform optimisation run                                     *
*  cell_only    - only optimise unit cell                                      *
*  property     - calculate properties for final geometry                      *
********************************************************************************

  Job Started  at 09:35.57  6th April      2017                               

  Number of CPUs =     1


  Total number of configurations input =   1

********************************************************************************
*  Input for Configuration =   1                                               *
********************************************************************************

  Formula = K4Ca4F12                                                    

  Number of irreducible atoms/shells =       6


  Total number atoms/shells =      32

  Dimensionality = 3               :  Bulk   


  Symmetry :

  Crystal family                   :  Orthorhombic
  Crystal class  (Groth - 1921)    :  Orthorhombic Bipyramidal             

  Space group (centrosymmetric)    :  P N M A         

  Patterson group                  :  P m m m  

  Cartesian lattice vectors (Angstroms) :

        6.223500    0.000000    0.000000
        0.000000    8.710300    0.000000
        0.000000    0.000000    6.118000

  Cell parameters (Angstroms/Degrees):

  a =       6.2235    alpha =  90.0000
  b =       8.7103    beta  =  90.0000
  c =       6.1180    gamma =  90.0000

  Initial cell volume =         331.647921 Angs**3

  Temperature of configuration =  0.000     K 

  Pressure of configuration =         0.000 GPa 

  Fractional coordinates of asymmetric unit :

--------------------------------------------------------------------------------
   No.  Atomic       x           y          z         Charge      Occupancy
        Label      (Frac)      (Frac)     (Frac)        (e)         (Frac)  
--------------------------------------------------------------------------------
      1 K     c    0.042000    0.250000    0.490600     0.50000    1.000000    
      2 Ca    c    0.000000    0.000000    0.000000     2.40000    1.000000    
      3 F     c    0.471500    0.250000    0.581200     0.37800    1.000000    
      4 F     c    0.291600    0.040400    0.206800     0.37800    1.000000    
      5 F     s    0.471500    0.250000    0.581200    -1.34467    1.000000    
      6 F     s    0.291600    0.040400    0.206800    -1.34467    1.000000    
--------------------------------------------------------------------------------



********************************************************************************
*  General input information                                                   *
********************************************************************************

  Species output for all configurations : 

--------------------------------------------------------------------------------
  Species    Type    Atomic    Atomic    Charge       Radii (Angs)     Library
                     Number     Mass       (e)     Cova   Ionic  VDW   Symbol
--------------------------------------------------------------------------------
    K        Core       19      39.10   0.500000   1.330  0.000  2.800          
    Ca       Core       20      40.08   2.400000   0.990  0.000  2.750          
    F        Core        9      19.00   0.378000   0.710  0.000  1.300          
    F        Shell       9       0.00  -1.344667   0.710  0.000  1.300          
--------------------------------------------------------------------------------


  Lattice summation method               =    Ewald          (3-D)
                                         =    Parry          (2-D)
                                         =    Saunders et al (1-D)
  Accuracy factor for lattice sums       =   12.000


  Time limit = Infinity

  Maximum range for interatomic potentials =    100000.000000 Angstroms

  General interatomic potentials :

--------------------------------------------------------------------------------
Atom  Types   Potential         A         B         C         D     Cutoffs(Ang)
  1     2                                                            Min    Max 
--------------------------------------------------------------------------------
K    c K    c Buckingham    0.219E+04 0.192      0.00      0.00     0.000 10.000
Ca   c F    s Buckingham    0.148E+04 0.266      0.00      0.00     0.000 10.000
F    s F    s Buckingham     912.     0.271      13.8      0.00     0.000 10.000
K    c F    s Buckingham    0.352E+04 0.267      0.00      0.00     0.000 10.000
F    c F    s Spring (c-s)   23.2      0.00      0.00      0.00     0.000  0.800
--------------------------------------------------------------------------------

********************************************************************************
*  Output for configuration   1                                                *
********************************************************************************


  Components of energy : 

--------------------------------------------------------------------------------
  Interatomic potentials     =          10.66009013 eV
  Monopole - monopole (real) =         -77.62376748 eV
  Monopole - monopole (recip)=         -97.65138956 eV
  Monopole - monopole (total)=        -175.27515705 eV
--------------------------------------------------------------------------------
  Total lattice energy       =        -164.61506691 eV
--------------------------------------------------------------------------------
  Total lattice energy       =          -15882.8376 kJ/(mole unit cells)
--------------------------------------------------------------------------------


  Number of variables =        3

  Maximum number of calculations  =          1000
  Maximum Hessian update interval =            10
  Maximum step size               =   1.000000000
  Maximum parameter tolerance     =   0.000010000
  Maximum function  tolerance     =   0.000010000
  Maximum gradient  tolerance     =   0.001000000
  Maximum gradient  component     =   0.010000000

  Symmetry constrained optimisation

  Symmetry used for second derivatives

  Cell parameters to be optimised using strains

  Newton-Raphson optimiser to be used

  BFGS hessian update to be used

  Start of bulk optimisation :

  Cycle:      0 Energy:      -164.615067  Gnorm:     14.582075  CPU:    0.007
  ** Hessian calculated **
  Cycle:      1 Energy:      -167.837098  Gnorm:      4.329879  CPU:    0.013
  Cycle:      2 Energy:      -168.020247  Gnorm:      0.316428  CPU:    0.020
  Cycle:      3 Energy:      -168.022842  Gnorm:      0.058981  CPU:    0.027
  Cycle:      4 Energy:      -168.022991  Gnorm:      0.004067  CPU:    0.033


  **** Optimisation achieved ****


  Final energy =    -168.02299144 eV
  Final Gnorm  =       0.00011488

  Components of energy : 

--------------------------------------------------------------------------------
  Interatomic potentials     =          22.02436451 eV
  Monopole - monopole (real) =         -84.16247920 eV
  Monopole - monopole (recip)=        -105.88487675 eV
  Monopole - monopole (total)=        -190.04735595 eV
--------------------------------------------------------------------------------
  Total lattice energy       =        -168.02299144 eV
--------------------------------------------------------------------------------
  Total lattice energy       =          -16211.6502 kJ/(mole unit cells)
--------------------------------------------------------------------------------

  Final asymmetric unit coordinates :

--------------------------------------------------------------------------------
   No.  Atomic        x           y           z         Radius
        Label       (Frac)      (Frac)      (Frac)       (Angs) 
--------------------------------------------------------------------------------
     1  K     c     0.042000    0.250000    0.490600    0.000000
     2  Ca    c     0.000000    0.000000    0.000000    0.000000
     3  F     c     0.471500    0.250000    0.581200    0.000000
     4  F     c     0.291600    0.040400    0.206800    0.000000
     5  F     s     0.471500    0.250000    0.581200    0.000000
     6  F     s     0.291600    0.040400    0.206800    0.000000
--------------------------------------------------------------------------------

  Final Cartesian lattice vectors (Angstroms) :

        5.757695    0.000000    0.000000
        0.000000    7.987785    0.000000
        0.000000    0.000000    5.656240


  Final cell parameters and derivatives :

--------------------------------------------------------------------------------
       a            5.757695 Angstrom     dE/de1(xx)     0.000192 eV/strain
       b            7.987785 Angstrom     dE/de2(yy)    -0.000007 eV/strain
       c            5.656240 Angstrom     dE/de3(zz)    -0.000286 eV/strain
       alpha       90.000000 Degrees      dE/de4(yz)     0.000000 eV/strain
       beta        90.000000 Degrees      dE/de5(xz)     0.000000 eV/strain
       gamma       90.000000 Degrees      dE/de6(xy)     0.000000 eV/strain
--------------------------------------------------------------------------------

  Primitive cell volume =           260.137457 Angs**3

  Density of cell =      3.477174 g/cm**3

  Non-primitive cell volume =           260.137457 Angs**3


  Final internal derivatives :

--------------------------------------------------------------------------------
   No.  Atomic          a             b             c           Radius
        Label          (eV)          (eV)          (eV)        (eV/Angs)
--------------------------------------------------------------------------------
      1 K     c       0.000000      0.000000      0.000000      0.000000
      2 Ca    c       0.000000      0.000000      0.000000      0.000000
      3 F     c       0.000000      0.000000      0.000000      0.000000
      4 F     c       0.000000      0.000000      0.000000      0.000000
      5 F     s       0.000000      0.000000      0.000000      0.000000
      6 F     s       0.000000      0.000000      0.000000      0.000000
--------------------------------------------------------------------------------
  Maximum abs         0.000000      0.000000      0.000000      0.000000
--------------------------------------------------------------------------------


  Born effective charge tensors : 

-------------------------------------------------------------------------------
  Atom             x           y             z
-------------------------------------------------------------------------------
   1 K     x       0.2528      0.0000     -0.0798
           y       0.0000      0.3054      0.0000
           z      -0.0621      0.0000      0.2446
-------------------------------------------------------------------------------
   2 Ca    x       2.2977      0.0150     -0.0704
           y      -0.0169      2.2500     -0.0559
           z       0.0324      0.0671      2.2998
-------------------------------------------------------------------------------
   3 F     x      -0.6901      0.0000      0.0374
           y       0.0000     -1.1497      0.0000
           z       0.0629      0.0000     -0.6638
-------------------------------------------------------------------------------
   4 F     x      -0.9302      0.0285     -0.2427
           y       0.0322     -0.7028     -0.0104
           z      -0.2392     -0.0075     -0.9403
-------------------------------------------------------------------------------




  Elastic Constant Matrix: (Units=GPa)

-------------------------------------------------------------------------------
  Indices      1         2         3         4         5         6    
-------------------------------------------------------------------------------
       1    121.0388   57.3730   67.0637    0.0000    0.0000    0.0000
       2     57.3730  129.6979   71.6862    0.0000    0.0000    0.0000
       3     67.0637   71.6862  120.3418    0.0000    0.0000    0.0000
       4      0.0000    0.0000    0.0000   37.3389    0.0000    0.0000
       5      0.0000    0.0000    0.0000    0.0000   28.6406    0.0000
       6      0.0000    0.0000    0.0000    0.0000    0.0000   47.3097
-------------------------------------------------------------------------------


  Elastic Compliance Matrix: (Units=1/GPa)

-------------------------------------------------------------------------------
  Indices      1         2         3         4         5         6    
-------------------------------------------------------------------------------
       1    0.012473 -0.002498 -0.005463  0.000000  0.000000  0.000000
       2   -0.002498  0.011995 -0.005753  0.000000  0.000000  0.000000
       3   -0.005463 -0.005753  0.014781  0.000000  0.000000  0.000000
       4    0.000000  0.000000  0.000000  0.026782  0.000000  0.000000
       5    0.000000  0.000000  0.000000  0.000000  0.034915  0.000000
       6    0.000000  0.000000  0.000000  0.000000  0.000000  0.021137
-------------------------------------------------------------------------------

  Mechanical properties :

-------------------------------------------------------------------------------
  Convention :                    Reuss         Voigt         Hill
-------------------------------------------------------------------------------
  Bulk  Modulus (GPa)     =      84.59621      84.81383      84.70502
  Shear Modulus (GPa)     =      32.58359      34.32154      33.45257
-------------------------------------------------------------------------------
  Velocity S-wave (km/s)  =       3.06116       3.14174       3.10171
  Velocity P-wave (km/s)  =       6.06822       6.12799       6.09818
-------------------------------------------------------------------------------
  Compressibility (1/GPa) =    0.01182086
-------------------------------------------------------------------------------
  Stress axis :                     x             y             z
-------------------------------------------------------------------------------
  Youngs Moduli (GPa)     =      80.17597      83.36658      67.65444
-------------------------------------------------------------------------------
  Poissons Ratio (x)      =                     0.20826       0.36957
  Poissons Ratio (y)      =       0.20029                     0.38924
  Poissons Ratio (z)      =       0.43797       0.47963
-------------------------------------------------------------------------------


  Piezoelectric Strain Matrix: (Units=C/m**2)

-------------------------------------------------------------------------------
  Indices      1         2         3         4         5         6    
-------------------------------------------------------------------------------
       x     0.00000   0.00000   0.00000   0.00000   0.00000   0.00000
       y     0.00000   0.00000   0.00000   0.00000   0.00000   0.00000
       z     0.00000   0.00000   0.00000   0.00000   0.00000   0.00000
-------------------------------------------------------------------------------


  Piezoelectric Stress Matrix: (Units=10**-11 C/N)

-------------------------------------------------------------------------------
  Indices      1         2         3         4         5         6    
-------------------------------------------------------------------------------
       x     0.00000   0.00000   0.00000   0.00000   0.00000   0.00000
       y     0.00000   0.00000   0.00000   0.00000   0.00000   0.00000
       z     0.00000   0.00000   0.00000   0.00000   0.00000   0.00000
-------------------------------------------------------------------------------


  Static dielectric constant tensor : 

-------------------------------------------------------------------------------
              x         y         z
-------------------------------------------------------------------------------
       x     4.80361   0.00000   0.00000
       y     0.00000   4.19277   0.00000
       z     0.00000   0.00000   4.59958
--------------------------------------------------------------------------------

  High frequency dielectric constant tensor : 

-------------------------------------------------------------------------------
              x         y         z
-------------------------------------------------------------------------------
       x     1.63591   0.00000   0.00000
       y     0.00000   1.63715   0.00000
       z     0.00000   0.00000   1.63409
-------------------------------------------------------------------------------

  Static refractive indices : 

-------------------------------------------------------------------------------
    1 =    2.04763      2 =    2.14466      3 =    2.19172
-------------------------------------------------------------------------------

  High frequency refractive indices : 

-------------------------------------------------------------------------------
    1 =    1.27831      2 =    1.27903      3 =    1.27951
-------------------------------------------------------------------------------


  Time to end of optimisation =       0.0552 seconds


  Peak dynamic memory used =       0.73 MB 


  Timing analysis for GULP :

--------------------------------------------------------------------------------
  Task / Subroutine                                          Time (Seconds)
--------------------------------------------------------------------------------
  Calculation of reciprocal space energy and derivatives          0.0026
  Calculation of reciprocal space energy using symmetry           0.0046
  Calculation of real space energy and derivatives                0.0125
  Calculation of real space energy using symmetry                 0.0310
  Symmetry generation of equivalent positions                     0.0004
--------------------------------------------------------------------------------
  Total CPU time                                                  0.0553
--------------------------------------------------------------------------------


  CIF file written as perov.cif                                               


  Job Finished at 09:35.57  6th April      2017                               

