********************************************************************************
*                       GENERAL UTILITY LATTICE PROGRAM                        *
*                                 Julian Gale                                  *
*                      Nanochemistry Research Institute                        *
*                           Department of Chemistry                            *
*                    Curtin University, Western Australia                      *
********************************************************************************
* Version = 4.3.2 * Last modified =  3rd March 2015                            *
********************************************************************************
*  optimise     - perform optimisation run                                     *
*  cell_only    - only optimise unit cell                                      *
*  property     - calculate properties for final geometry                      *
********************************************************************************

  Job Started  at 09:36.03  6th April      2017                               

  Number of CPUs =     1


  Total number of configurations input =   1

********************************************************************************
*  Input for Configuration =   1                                               *
********************************************************************************

  Formula = K4Ca4F12                                                    

  Number of irreducible atoms/shells =       6


  Total number atoms/shells =      32

  Dimensionality = 3               :  Bulk   


  Symmetry :

  Crystal family                   :  Orthorhombic
  Crystal class  (Groth - 1921)    :  Orthorhombic Bipyramidal             

  Space group (centrosymmetric)    :  P N M A         

  Patterson group                  :  P m m m  

  Cartesian lattice vectors (Angstroms) :

        6.223500    0.000000    0.000000
        0.000000    8.710300    0.000000
        0.000000    0.000000    6.118000

  Cell parameters (Angstroms/Degrees):

  a =       6.2235    alpha =  90.0000
  b =       8.7103    beta  =  90.0000
  c =       6.1180    gamma =  90.0000

  Initial cell volume =         331.647921 Angs**3

  Temperature of configuration =  0.000     K 

  Pressure of configuration =         0.000 GPa 

  Fractional coordinates of asymmetric unit :

--------------------------------------------------------------------------------
   No.  Atomic       x           y          z         Charge      Occupancy
        Label      (Frac)      (Frac)     (Frac)        (e)         (Frac)  
--------------------------------------------------------------------------------
      1 K     c    0.042000    0.250000    0.490600     1.40000    1.000000    
      2 Ca    c    0.000000    0.000000    0.000000     1.60000    1.000000    
      3 F     c    0.471500    0.250000    0.581200     0.37800    1.000000    
      4 F     c    0.291600    0.040400    0.206800     0.37800    1.000000    
      5 F     s    0.471500    0.250000    0.581200    -1.37800    1.000000    
      6 F     s    0.291600    0.040400    0.206800    -1.37800    1.000000    
--------------------------------------------------------------------------------



********************************************************************************
*  General input information                                                   *
********************************************************************************

  Species output for all configurations : 

--------------------------------------------------------------------------------
  Species    Type    Atomic    Atomic    Charge       Radii (Angs)     Library
                     Number     Mass       (e)     Cova   Ionic  VDW   Symbol
--------------------------------------------------------------------------------
    K        Core       19      39.10   1.400000   1.330  0.000  2.800          
    Ca       Core       20      40.08   1.600000   0.990  0.000  2.750          
    F        Core        9      19.00   0.378000   0.710  0.000  1.300          
    F        Shell       9       0.00  -1.378000   0.710  0.000  1.300          
--------------------------------------------------------------------------------


  Lattice summation method               =    Ewald          (3-D)
                                         =    Parry          (2-D)
                                         =    Saunders et al (1-D)
  Accuracy factor for lattice sums       =   12.000


  Time limit = Infinity

  Maximum range for interatomic potentials =    100000.000000 Angstroms

  General interatomic potentials :

--------------------------------------------------------------------------------
Atom  Types   Potential         A         B         C         D     Cutoffs(Ang)
  1     2                                                            Min    Max 
--------------------------------------------------------------------------------
K    c K    c Buckingham    0.219E+04 0.192      0.00      0.00     0.000 10.000
Ca   c F    s Buckingham    0.148E+04 0.266      0.00      0.00     0.000 10.000
F    s F    s Buckingham     912.     0.271      13.8      0.00     0.000 10.000
K    c F    s Buckingham    0.352E+04 0.267      0.00      0.00     0.000 10.000
F    c F    s Spring (c-s)   24.3      0.00      0.00      0.00     0.000  0.800
--------------------------------------------------------------------------------

********************************************************************************
*  Output for configuration   1                                                *
********************************************************************************


  Components of energy : 

--------------------------------------------------------------------------------
  Interatomic potentials     =          10.66009013 eV
  Monopole - monopole (real) =         -66.04355112 eV
  Monopole - monopole (recip)=         -83.45606916 eV
  Monopole - monopole (total)=        -149.49962028 eV
--------------------------------------------------------------------------------
  Total lattice energy       =        -138.83953015 eV
--------------------------------------------------------------------------------
  Total lattice energy       =          -13395.8923 kJ/(mole unit cells)
--------------------------------------------------------------------------------


  Number of variables =        3

  Maximum number of calculations  =          1000
  Maximum Hessian update interval =            10
  Maximum step size               =   1.000000000
  Maximum parameter tolerance     =   0.000010000
  Maximum function  tolerance     =   0.000010000
  Maximum gradient  tolerance     =   0.001000000
  Maximum gradient  component     =   0.010000000

  Symmetry constrained optimisation

  Symmetry used for second derivatives

  Cell parameters to be optimised using strains

  Newton-Raphson optimiser to be used

  BFGS hessian update to be used

  Start of bulk optimisation :

  Cycle:      0 Energy:      -138.839530  Gnorm:      9.622603  CPU:    0.007
  ** Hessian calculated **
  Cycle:      1 Energy:      -140.343464  Gnorm:      2.016889  CPU:    0.013
  Cycle:      2 Energy:      -140.387100  Gnorm:      0.550415  CPU:    0.018
  Cycle:      3 Energy:      -140.391333  Gnorm:      0.075193  CPU:    0.025
  Cycle:      4 Energy:      -140.391450  Gnorm:      0.000132  CPU:    0.031


  **** Optimisation achieved ****


  Final energy =    -140.39144964 eV
  Final Gnorm  =       0.00000578

  Components of energy : 

--------------------------------------------------------------------------------
  Interatomic potentials     =          17.94296121 eV
  Monopole - monopole (real) =         -69.94375675 eV
  Monopole - monopole (recip)=         -88.39065410 eV
  Monopole - monopole (total)=        -158.33441085 eV
--------------------------------------------------------------------------------
  Total lattice energy       =        -140.39144964 eV
--------------------------------------------------------------------------------
  Total lattice energy       =          -13545.6288 kJ/(mole unit cells)
--------------------------------------------------------------------------------

  Final asymmetric unit coordinates :

--------------------------------------------------------------------------------
   No.  Atomic        x           y           z         Radius
        Label       (Frac)      (Frac)      (Frac)       (Angs) 
--------------------------------------------------------------------------------
     1  K     c     0.042000    0.250000    0.490600    0.000000
     2  Ca    c     0.000000    0.000000    0.000000    0.000000
     3  F     c     0.471500    0.250000    0.581200    0.000000
     4  F     c     0.291600    0.040400    0.206800    0.000000
     5  F     s     0.471500    0.250000    0.581200    0.000000
     6  F     s     0.291600    0.040400    0.206800    0.000000
--------------------------------------------------------------------------------

  Final Cartesian lattice vectors (Angstroms) :

        5.898510    0.000000    0.000000
        0.000000    8.182093    0.000000
        0.000000    0.000000    5.783980


  Final cell parameters and derivatives :

--------------------------------------------------------------------------------
       a            5.898510 Angstrom     dE/de1(xx)     0.000009 eV/strain
       b            8.182093 Angstrom     dE/de2(yy)    -0.000003 eV/strain
       c            5.783980 Angstrom     dE/de3(zz)    -0.000015 eV/strain
       alpha       90.000000 Degrees      dE/de4(yz)     0.000000 eV/strain
       beta        90.000000 Degrees      dE/de5(xz)     0.000000 eV/strain
       gamma       90.000000 Degrees      dE/de6(xy)     0.000000 eV/strain
--------------------------------------------------------------------------------

  Primitive cell volume =           279.147379 Angs**3

  Density of cell =      3.240379 g/cm**3

  Non-primitive cell volume =           279.147379 Angs**3


  Final internal derivatives :

--------------------------------------------------------------------------------
   No.  Atomic          a             b             c           Radius
        Label          (eV)          (eV)          (eV)        (eV/Angs)
--------------------------------------------------------------------------------
      1 K     c       0.000000      0.000000      0.000000      0.000000
      2 Ca    c       0.000000      0.000000      0.000000      0.000000
      3 F     c       0.000000      0.000000      0.000000      0.000000
      4 F     c       0.000000      0.000000      0.000000      0.000000
      5 F     s       0.000000      0.000000      0.000000      0.000000
      6 F     s       0.000000      0.000000      0.000000      0.000000
--------------------------------------------------------------------------------
  Maximum abs         0.000000      0.000000      0.000000      0.000000
--------------------------------------------------------------------------------


  Born effective charge tensors : 

-------------------------------------------------------------------------------
  Atom             x           y             z
-------------------------------------------------------------------------------
   1 K     x       1.3701      0.0000     -0.0304
           y       0.0000      1.4113      0.0000
           z      -0.0341      0.0000      1.3598
-------------------------------------------------------------------------------
   2 Ca    x       1.3129      0.0139     -0.0051
           y       0.0082      1.2828      0.0033
           z      -0.0029      0.0082      1.3117
-------------------------------------------------------------------------------
   3 F     x      -0.8940      0.0000      0.0113
           y       0.0000     -0.8728      0.0000
           z       0.0138      0.0000     -0.8711
-------------------------------------------------------------------------------
   4 F     x      -0.8945      0.0205      0.0073
           y       0.0279     -0.9106     -0.0310
           z       0.0087     -0.0331     -0.9002
-------------------------------------------------------------------------------




  Elastic Constant Matrix: (Units=GPa)

-------------------------------------------------------------------------------
  Indices      1         2         3         4         5         6    
-------------------------------------------------------------------------------
       1    104.1745   43.3872   50.6546    0.0000    0.0000    0.0000
       2     43.3872  117.1663   46.4876    0.0000    0.0000    0.0000
       3     50.6546   46.4876  110.8976    0.0000    0.0000    0.0000
       4      0.0000    0.0000    0.0000   33.2312    0.0000    0.0000
       5      0.0000    0.0000    0.0000    0.0000   34.7749    0.0000
       6      0.0000    0.0000    0.0000    0.0000    0.0000   37.9730
-------------------------------------------------------------------------------


  Elastic Compliance Matrix: (Units=1/GPa)

-------------------------------------------------------------------------------
  Indices      1         2         3         4         5         6    
-------------------------------------------------------------------------------
       1    0.013156 -0.002984 -0.004758  0.000000  0.000000  0.000000
       2   -0.002984  0.010914 -0.003212  0.000000  0.000000  0.000000
       3   -0.004758 -0.003212  0.012537  0.000000  0.000000  0.000000
       4    0.000000  0.000000  0.000000  0.030092  0.000000  0.000000
       5    0.000000  0.000000  0.000000  0.000000  0.028756  0.000000
       6    0.000000  0.000000  0.000000  0.000000  0.000000  0.026334
-------------------------------------------------------------------------------

  Mechanical properties :

-------------------------------------------------------------------------------
  Convention :                    Reuss         Voigt         Hill
-------------------------------------------------------------------------------
  Bulk  Modulus (GPa)     =      68.03368      68.14411      68.08890
  Shear Modulus (GPa)     =      33.64767      33.97643      33.81205
-------------------------------------------------------------------------------
  Velocity S-wave (km/s)  =       3.22240       3.23811       3.23026
  Velocity P-wave (km/s)  =       5.90261       5.91693       5.90977
-------------------------------------------------------------------------------
  Compressibility (1/GPa) =    0.01469860
-------------------------------------------------------------------------------
  Stress axis :                     x             y             z
-------------------------------------------------------------------------------
  Youngs Moduli (GPa)     =      76.01287      91.62298      79.76131
-------------------------------------------------------------------------------
  Poissons Ratio (x)      =                     0.27337       0.37953
  Poissons Ratio (y)      =       0.22679                     0.25622
  Poissons Ratio (z)      =       0.36170       0.29433
-------------------------------------------------------------------------------


  Piezoelectric Strain Matrix: (Units=C/m**2)

-------------------------------------------------------------------------------
  Indices      1         2         3         4         5         6    
-------------------------------------------------------------------------------
       x     0.00000   0.00000   0.00000   0.00000   0.00000   0.00000
       y     0.00000   0.00000   0.00000   0.00000   0.00000   0.00000
       z     0.00000   0.00000   0.00000   0.00000   0.00000   0.00000
-------------------------------------------------------------------------------


  Piezoelectric Stress Matrix: (Units=10**-11 C/N)

-------------------------------------------------------------------------------
  Indices      1         2         3         4         5         6    
-------------------------------------------------------------------------------
       x     0.00000   0.00000   0.00000   0.00000   0.00000   0.00000
       y     0.00000   0.00000   0.00000   0.00000   0.00000   0.00000
       z     0.00000   0.00000   0.00000   0.00000   0.00000   0.00000
-------------------------------------------------------------------------------


  Static dielectric constant tensor : 

-------------------------------------------------------------------------------
              x         y         z
-------------------------------------------------------------------------------
       x     5.17363   0.00000   0.00000
       y     0.00000   7.25109   0.00000
       z     0.00000   0.00000   4.96513
--------------------------------------------------------------------------------

  High frequency dielectric constant tensor : 

-------------------------------------------------------------------------------
              x         y         z
-------------------------------------------------------------------------------
       x     1.59331   0.00000   0.00000
       y     0.00000   1.59546   0.00000
       z     0.00000   0.00000   1.59097
-------------------------------------------------------------------------------

  Static refractive indices : 

-------------------------------------------------------------------------------
    1 =    2.22826      2 =    2.27456      3 =    2.69278
-------------------------------------------------------------------------------

  High frequency refractive indices : 

-------------------------------------------------------------------------------
    1 =    1.26134      2 =    1.26226      3 =    1.26311
-------------------------------------------------------------------------------


  Time to end of optimisation =       0.0544 seconds


  Peak dynamic memory used =       0.73 MB 


  Timing analysis for GULP :

--------------------------------------------------------------------------------
  Task / Subroutine                                          Time (Seconds)
--------------------------------------------------------------------------------
  Calculation of reciprocal space energy and derivatives          0.0027
  Calculation of reciprocal space energy using symmetry           0.0044
  Calculation of real space energy and derivatives                0.0132
  Calculation of real space energy using symmetry                 0.0297
  Symmetry generation of equivalent positions                     0.0004
--------------------------------------------------------------------------------
  Total CPU time                                                  0.0545
--------------------------------------------------------------------------------


  CIF file written as perov.cif                                               


  Job Finished at 09:36.03  6th April      2017                               

