********************************************************************************
*                       GENERAL UTILITY LATTICE PROGRAM                        *
*                                 Julian Gale                                  *
*                      Nanochemistry Research Institute                        *
*                           Department of Chemistry                            *
*                    Curtin University, Western Australia                      *
********************************************************************************
* Version = 4.3.2 * Last modified =  3rd March 2015                            *
********************************************************************************
*  optimise     - perform optimisation run                                     *
*  cell_only    - only optimise unit cell                                      *
*  property     - calculate properties for final geometry                      *
********************************************************************************

  Job Started  at 09:35.58  6th April      2017                               

  Number of CPUs =     1


  Total number of configurations input =   1

********************************************************************************
*  Input for Configuration =   1                                               *
********************************************************************************

  Formula = K4Ca4F12                                                    

  Number of irreducible atoms/shells =       6


  Total number atoms/shells =      32

  Dimensionality = 3               :  Bulk   


  Symmetry :

  Crystal family                   :  Orthorhombic
  Crystal class  (Groth - 1921)    :  Orthorhombic Bipyramidal             

  Space group (centrosymmetric)    :  P N M A         

  Patterson group                  :  P m m m  

  Cartesian lattice vectors (Angstroms) :

        6.223500    0.000000    0.000000
        0.000000    8.710300    0.000000
        0.000000    0.000000    6.118000

  Cell parameters (Angstroms/Degrees):

  a =       6.2235    alpha =  90.0000
  b =       8.7103    beta  =  90.0000
  c =       6.1180    gamma =  90.0000

  Initial cell volume =         331.647921 Angs**3

  Temperature of configuration =  0.000     K 

  Pressure of configuration =         0.000 GPa 

  Fractional coordinates of asymmetric unit :

--------------------------------------------------------------------------------
   No.  Atomic       x           y          z         Charge      Occupancy
        Label      (Frac)      (Frac)     (Frac)        (e)         (Frac)  
--------------------------------------------------------------------------------
      1 K     c    0.042000    0.250000    0.490600     0.70000    1.000000    
      2 Ca    c    0.000000    0.000000    0.000000     2.00000    1.000000    
      3 F     c    0.471500    0.250000    0.581200     0.37800    1.000000    
      4 F     c    0.291600    0.040400    0.206800     0.37800    1.000000    
      5 F     s    0.471500    0.250000    0.581200    -1.27800    1.000000    
      6 F     s    0.291600    0.040400    0.206800    -1.27800    1.000000    
--------------------------------------------------------------------------------



********************************************************************************
*  General input information                                                   *
********************************************************************************

  Species output for all configurations : 

--------------------------------------------------------------------------------
  Species    Type    Atomic    Atomic    Charge       Radii (Angs)     Library
                     Number     Mass       (e)     Cova   Ionic  VDW   Symbol
--------------------------------------------------------------------------------
    K        Core       19      39.10   0.700000   1.330  0.000  2.800          
    Ca       Core       20      40.08   2.000000   0.990  0.000  2.750          
    F        Core        9      19.00   0.378000   0.710  0.000  1.300          
    F        Shell       9       0.00  -1.278000   0.710  0.000  1.300          
--------------------------------------------------------------------------------


  Lattice summation method               =    Ewald          (3-D)
                                         =    Parry          (2-D)
                                         =    Saunders et al (1-D)
  Accuracy factor for lattice sums       =   12.000


  Time limit = Infinity

  Maximum range for interatomic potentials =    100000.000000 Angstroms

  General interatomic potentials :

--------------------------------------------------------------------------------
Atom  Types   Potential         A         B         C         D     Cutoffs(Ang)
  1     2                                                            Min    Max 
--------------------------------------------------------------------------------
K    c K    c Buckingham    0.219E+04 0.192      0.00      0.00     0.000 10.000
Ca   c F    s Buckingham    0.148E+04 0.266      0.00      0.00     0.000 10.000
F    s F    s Buckingham     912.     0.271      13.8      0.00     0.000 10.000
K    c F    s Buckingham    0.352E+04 0.267      0.00      0.00     0.000 10.000
F    c F    s Spring (c-s)   20.9      0.00      0.00      0.00     0.000  0.800
--------------------------------------------------------------------------------

********************************************************************************
*  Output for configuration   1                                                *
********************************************************************************


  Components of energy : 

--------------------------------------------------------------------------------
  Interatomic potentials     =          10.66009013 eV
  Monopole - monopole (real) =         -62.51113756 eV
  Monopole - monopole (recip)=         -76.77495930 eV
  Monopole - monopole (total)=        -139.28609687 eV
--------------------------------------------------------------------------------
  Total lattice energy       =        -128.62600673 eV
--------------------------------------------------------------------------------
  Total lattice energy       =          -12410.4434 kJ/(mole unit cells)
--------------------------------------------------------------------------------


  Number of variables =        3

  Maximum number of calculations  =          1000
  Maximum Hessian update interval =            10
  Maximum step size               =   1.000000000
  Maximum parameter tolerance     =   0.000010000
  Maximum function  tolerance     =   0.000010000
  Maximum gradient  tolerance     =   0.001000000
  Maximum gradient  component     =   0.010000000

  Symmetry constrained optimisation

  Symmetry used for second derivatives

  Cell parameters to be optimised using strains

  Newton-Raphson optimiser to be used

  BFGS hessian update to be used

  Start of bulk optimisation :

  Cycle:      0 Energy:      -128.626007  Gnorm:      7.656408  CPU:    0.007
  ** Hessian calculated **
  Cycle:      1 Energy:      -129.606161  Gnorm:      1.309649  CPU:    0.013
  Cycle:      2 Energy:      -129.627089  Gnorm:      0.306025  CPU:    0.018
  Cycle:      3 Energy:      -129.628631  Gnorm:      0.053669  CPU:    0.025
  Cycle:      4 Energy:      -129.628790  Gnorm:      0.017903  CPU:    0.036
  Cycle:      5 Energy:      -129.628790  Gnorm:      0.017660  CPU:    0.044
  Cycle:      6 Energy:      -129.628791  Gnorm:      0.016922  CPU:    0.051
  Cycle:      7 Energy:      -129.628791  Gnorm:      0.015869  CPU:    0.058
  Cycle:      8 Energy:      -129.628792  Gnorm:      0.014845  CPU:    0.065
  Cycle:      9 Energy:      -129.628793  Gnorm:      0.013945  CPU:    0.072
  Cycle:     10 Energy:      -129.628793  Gnorm:      0.013720  CPU:    0.078
  ** Hessian calculated **
  Cycle:     11 Energy:      -129.628793  Gnorm:      0.013720  CPU:    0.087
  ** Hessian calculated **


  **** Conditions for a minimum have not been satisfied. However ****
  **** no lower point can be found - treat results with caution  ****
  **** unless gradient norm is small (less than 0.1)             ****


  Final energy =    -129.62879263 eV
  Final Gnorm  =       0.01372048

  Components of energy : 

--------------------------------------------------------------------------------
  Interatomic potentials     =          16.39248324 eV
  Monopole - monopole (real) =         -65.53109537 eV
  Monopole - monopole (recip)=         -80.49018050 eV
  Monopole - monopole (total)=        -146.02127587 eV
--------------------------------------------------------------------------------
  Total lattice energy       =        -129.62879263 eV
--------------------------------------------------------------------------------
  Total lattice energy       =          -12507.1969 kJ/(mole unit cells)
--------------------------------------------------------------------------------

  Final asymmetric unit coordinates :

--------------------------------------------------------------------------------
   No.  Atomic        x           y           z         Radius
        Label       (Frac)      (Frac)      (Frac)       (Angs) 
--------------------------------------------------------------------------------
     1  K     c     0.042000    0.250000    0.490600    0.000000
     2  Ca    c     0.000000    0.000000    0.000000    0.000000
     3  F     c     0.471500    0.250000    0.581200    0.000000
     4  F     c     0.291600    0.040400    0.206800    0.000000
     5  F     s     0.471500    0.250000    0.581200    0.000000
     6  F     s     0.291600    0.040400    0.206800    0.000000
--------------------------------------------------------------------------------

  Final Cartesian lattice vectors (Angstroms) :

        5.954041    0.000000    0.000000
        0.000000    8.264450    0.000000
        0.000000    0.000000    5.848935


  Final cell parameters and derivatives :

--------------------------------------------------------------------------------
       a            5.954041 Angstrom     dE/de1(xx)    -0.028898 eV/strain
       b            8.264450 Angstrom     dE/de2(yy)    -0.001817 eV/strain
       c            5.848935 Angstrom     dE/de3(zz)    -0.029255 eV/strain
       alpha       90.000000 Degrees      dE/de4(yz)     0.000000 eV/strain
       beta        90.000000 Degrees      dE/de5(xz)     0.000000 eV/strain
       gamma       90.000000 Degrees      dE/de6(xy)     0.000000 eV/strain
--------------------------------------------------------------------------------

  Primitive cell volume =           287.807800 Angs**3

  Density of cell =      3.142873 g/cm**3

  Non-primitive cell volume =           287.807800 Angs**3


  Final internal derivatives :

--------------------------------------------------------------------------------
   No.  Atomic          a             b             c           Radius
        Label          (eV)          (eV)          (eV)        (eV/Angs)
--------------------------------------------------------------------------------
      1 K     c       0.000000      0.000000      0.000000      0.000000
      2 Ca    c       0.000000      0.000000      0.000000      0.000000
      3 F     c       0.000000      0.000000      0.000000      0.000000
      4 F     c       0.000000      0.000000      0.000000      0.000000
      5 F     s       0.000000      0.000000      0.000000      0.000000
      6 F     s       0.000000      0.000000      0.000000      0.000000
--------------------------------------------------------------------------------
  Maximum abs         0.000000      0.000000      0.000000      0.000000
--------------------------------------------------------------------------------


  Born effective charge tensors : 

-------------------------------------------------------------------------------
  Atom             x           y             z
-------------------------------------------------------------------------------
   1 K     x       0.5444      0.0000     -0.0498
           y       0.0000      0.5860      0.0000
           z      -0.0456      0.0000      0.5351
-------------------------------------------------------------------------------
   2 Ca    x       1.8326      0.0101     -0.0332
           y      -0.0046      1.7979     -0.0223
           z       0.0118      0.0318      1.8342
-------------------------------------------------------------------------------
   3 F     x      -0.6997      0.0000      0.0273
           y       0.0000     -0.9588      0.0000
           z       0.0424      0.0000     -0.6771
-------------------------------------------------------------------------------
   4 F     x      -0.8386      0.0223     -0.1375
           y       0.0261     -0.7125     -0.0154
           z      -0.1354     -0.0144     -0.8461
-------------------------------------------------------------------------------




  Elastic Constant Matrix: (Units=GPa)

-------------------------------------------------------------------------------
  Indices      1         2         3         4         5         6    
-------------------------------------------------------------------------------
       1     92.1042   41.4852   45.5423    0.0000    0.0000    0.0000
       2     41.4852   97.7313   48.1974    0.0000    0.0000    0.0000
       3     45.5423   48.1974   94.2475    0.0000    0.0000    0.0000
       4      0.0000    0.0000    0.0000   29.4558    0.0000    0.0000
       5      0.0000    0.0000    0.0000    0.0000   23.3868    0.0000
       6      0.0000    0.0000    0.0000    0.0000    0.0000   35.3135
-------------------------------------------------------------------------------


  Elastic Compliance Matrix: (Units=1/GPa)

-------------------------------------------------------------------------------
  Indices      1         2         3         4         5         6    
-------------------------------------------------------------------------------
       1    0.015252 -0.003797 -0.005428  0.000000  0.000000  0.000000
       2   -0.003797  0.014628 -0.005646  0.000000  0.000000  0.000000
       3   -0.005428 -0.005646  0.016121  0.000000  0.000000  0.000000
       4    0.000000  0.000000  0.000000  0.033949  0.000000  0.000000
       5    0.000000  0.000000  0.000000  0.000000  0.042759  0.000000
       6    0.000000  0.000000  0.000000  0.000000  0.000000  0.028318
-------------------------------------------------------------------------------

  Mechanical properties :

-------------------------------------------------------------------------------
  Convention :                    Reuss         Voigt         Hill
-------------------------------------------------------------------------------
  Bulk  Modulus (GPa)     =      61.50730      61.61475      61.56103
  Shear Modulus (GPa)     =      26.85455      27.55509      27.20482
-------------------------------------------------------------------------------
  Velocity S-wave (km/s)  =       2.92311       2.96099       2.94211
  Velocity P-wave (km/s)  =       5.56446       5.59416       5.57933
-------------------------------------------------------------------------------
  Compressibility (1/GPa) =    0.01625823
-------------------------------------------------------------------------------
  Stress axis :                     x             y             z
-------------------------------------------------------------------------------
  Youngs Moduli (GPa)     =      65.56716      68.36054      62.03239
-------------------------------------------------------------------------------
  Poissons Ratio (x)      =                     0.25957       0.33672
  Poissons Ratio (y)      =       0.24897                     0.35023
  Poissons Ratio (z)      =       0.35590       0.38596
-------------------------------------------------------------------------------


  Piezoelectric Strain Matrix: (Units=C/m**2)

-------------------------------------------------------------------------------
  Indices      1         2         3         4         5         6    
-------------------------------------------------------------------------------
       x     0.00000   0.00000   0.00000   0.00000   0.00000   0.00000
       y     0.00000   0.00000   0.00000   0.00000   0.00000   0.00000
       z     0.00000   0.00000   0.00000   0.00000   0.00000   0.00000
-------------------------------------------------------------------------------


  Piezoelectric Stress Matrix: (Units=10**-11 C/N)

-------------------------------------------------------------------------------
  Indices      1         2         3         4         5         6    
-------------------------------------------------------------------------------
       x     0.00000   0.00000   0.00000   0.00000   0.00000   0.00000
       y     0.00000   0.00000   0.00000   0.00000   0.00000   0.00000
       z     0.00000   0.00000   0.00000   0.00000   0.00000   0.00000
-------------------------------------------------------------------------------


  Static dielectric constant tensor : 

-------------------------------------------------------------------------------
              x         y         z
-------------------------------------------------------------------------------
       x     3.78565   0.00000   0.00000
       y     0.00000   3.64002   0.00000
       z     0.00000   0.00000   3.60571
--------------------------------------------------------------------------------

  High frequency dielectric constant tensor : 

-------------------------------------------------------------------------------
              x         y         z
-------------------------------------------------------------------------------
       x     1.57354   0.00000   0.00000
       y     0.00000   1.57502   0.00000
       z     0.00000   0.00000   1.57162
-------------------------------------------------------------------------------

  Static refractive indices : 

-------------------------------------------------------------------------------
    1 =    1.89887      2 =    1.90788      3 =    1.94567
-------------------------------------------------------------------------------

  High frequency refractive indices : 

-------------------------------------------------------------------------------
    1 =    1.25364      2 =    1.25441      3 =    1.25500
-------------------------------------------------------------------------------


  Time to end of optimisation =       0.1131 seconds


  Peak dynamic memory used =       0.73 MB 


  Timing analysis for GULP :

--------------------------------------------------------------------------------
  Task / Subroutine                                          Time (Seconds)
--------------------------------------------------------------------------------
  Calculation of reciprocal space energy and derivatives          0.0031
  Calculation of reciprocal space energy using symmetry           0.0122
  Calculation of real space energy and derivatives                0.0128
  Calculation of real space energy using symmetry                 0.0799
  Symmetry generation of equivalent positions                     0.0005
--------------------------------------------------------------------------------
  Total CPU time                                                  0.1132
--------------------------------------------------------------------------------


  CIF file written as perov.cif                                               


  Job Finished at 09:35.58  6th April      2017                               

