********************************************************************************
*                       GENERAL UTILITY LATTICE PROGRAM                        *
*                                 Julian Gale                                  *
*                      Nanochemistry Research Institute                        *
*                           Department of Chemistry                            *
*                    Curtin University, Western Australia                      *
********************************************************************************
* Version = 4.3.2 * Last modified =  3rd March 2015                            *
********************************************************************************
*  optimise     - perform optimisation run                                     *
*  cell_only    - only optimise unit cell                                      *
*  property     - calculate properties for final geometry                      *
********************************************************************************

  Job Started  at 09:36.03  6th April      2017                               

  Number of CPUs =     1


  Total number of configurations input =   1

********************************************************************************
*  Input for Configuration =   1                                               *
********************************************************************************

  Formula = K4Ca4F12                                                    

  Number of irreducible atoms/shells =       6


  Total number atoms/shells =      32

  Dimensionality = 3               :  Bulk   


  Symmetry :

  Crystal family                   :  Orthorhombic
  Crystal class  (Groth - 1921)    :  Orthorhombic Bipyramidal             

  Space group (centrosymmetric)    :  P N M A         

  Patterson group                  :  P m m m  

  Cartesian lattice vectors (Angstroms) :

        6.223500    0.000000    0.000000
        0.000000    8.710300    0.000000
        0.000000    0.000000    6.118000

  Cell parameters (Angstroms/Degrees):

  a =       6.2235    alpha =  90.0000
  b =       8.7103    beta  =  90.0000
  c =       6.1180    gamma =  90.0000

  Initial cell volume =         331.647921 Angs**3

  Temperature of configuration =  0.000     K 

  Pressure of configuration =         0.000 GPa 

  Fractional coordinates of asymmetric unit :

--------------------------------------------------------------------------------
   No.  Atomic       x           y          z         Charge      Occupancy
        Label      (Frac)      (Frac)     (Frac)        (e)         (Frac)  
--------------------------------------------------------------------------------
      1 K     c    0.042000    0.250000    0.490600     1.40000    1.000000    
      2 Ca    c    0.000000    0.000000    0.000000     2.20000    1.000000    
      3 F     c    0.471500    0.250000    0.581200     0.37800    1.000000    
      4 F     c    0.291600    0.040400    0.206800     0.37800    1.000000    
      5 F     s    0.471500    0.250000    0.581200    -1.57800    1.000000    
      6 F     s    0.291600    0.040400    0.206800    -1.57800    1.000000    
--------------------------------------------------------------------------------



********************************************************************************
*  General input information                                                   *
********************************************************************************

  Species output for all configurations : 

--------------------------------------------------------------------------------
  Species    Type    Atomic    Atomic    Charge       Radii (Angs)     Library
                     Number     Mass       (e)     Cova   Ionic  VDW   Symbol
--------------------------------------------------------------------------------
    K        Core       19      39.10   1.400000   1.330  0.000  2.800          
    Ca       Core       20      40.08   2.200000   0.990  0.000  2.750          
    F        Core        9      19.00   0.378000   0.710  0.000  1.300          
    F        Shell       9       0.00  -1.578000   0.710  0.000  1.300          
--------------------------------------------------------------------------------


  Lattice summation method               =    Ewald          (3-D)
                                         =    Parry          (2-D)
                                         =    Saunders et al (1-D)
  Accuracy factor for lattice sums       =   12.000


  Time limit = Infinity

  Maximum range for interatomic potentials =    100000.000000 Angstroms

  General interatomic potentials :

--------------------------------------------------------------------------------
Atom  Types   Potential         A         B         C         D     Cutoffs(Ang)
  1     2                                                            Min    Max 
--------------------------------------------------------------------------------
K    c K    c Buckingham    0.219E+04 0.192      0.00      0.00     0.000 10.000
Ca   c F    s Buckingham    0.148E+04 0.266      0.00      0.00     0.000 10.000
F    s F    s Buckingham     912.     0.271      13.8      0.00     0.000 10.000
K    c F    s Buckingham    0.352E+04 0.267      0.00      0.00     0.000 10.000
F    c F    s Spring (c-s)   31.9      0.00      0.00      0.00     0.000  0.800
--------------------------------------------------------------------------------

********************************************************************************
*  Output for configuration   1                                                *
********************************************************************************


  Components of energy : 

--------------------------------------------------------------------------------
  Interatomic potentials     =          10.66009013 eV
  Monopole - monopole (real) =        -100.41189124 eV
  Monopole - monopole (recip)=        -123.46727761 eV
  Monopole - monopole (total)=        -223.87916885 eV
--------------------------------------------------------------------------------
  Total lattice energy       =        -213.21907872 eV
--------------------------------------------------------------------------------
  Total lattice energy       =          -20572.3817 kJ/(mole unit cells)
--------------------------------------------------------------------------------


  Number of variables =        3

  Maximum number of calculations  =          1000
  Maximum Hessian update interval =            10
  Maximum step size               =   1.000000000
  Maximum parameter tolerance     =   0.000010000
  Maximum function  tolerance     =   0.000010000
  Maximum gradient  tolerance     =   0.001000000
  Maximum gradient  component     =   0.010000000

  Symmetry constrained optimisation

  Symmetry used for second derivatives

  Cell parameters to be optimised using strains

  Newton-Raphson optimiser to be used

  BFGS hessian update to be used

  Start of bulk optimisation :

  Cycle:      0 Energy:      -213.219079  Gnorm:     23.937375  CPU:    0.007
  ** Hessian calculated **
  Cycle:      1 Energy:      -221.695733  Gnorm:      2.248261  CPU:    0.016
  Cycle:      2 Energy:      -221.741423  Gnorm:      1.260074  CPU:    0.023
  Cycle:      3 Energy:      -221.756697  Gnorm:      0.030139  CPU:    0.028
  Cycle:      4 Energy:      -221.756713  Gnorm:      0.001816  CPU:    0.034


  **** Optimisation achieved ****


  Final energy =    -221.75671281 eV
  Final Gnorm  =       0.00048349

  Components of energy : 

--------------------------------------------------------------------------------
  Interatomic potentials     =          30.24852291 eV
  Monopole - monopole (real) =        -113.02192105 eV
  Monopole - monopole (recip)=        -138.98331467 eV
  Monopole - monopole (total)=        -252.00523572 eV
--------------------------------------------------------------------------------
  Total lattice energy       =        -221.75671281 eV
--------------------------------------------------------------------------------
  Total lattice energy       =          -21396.1329 kJ/(mole unit cells)
--------------------------------------------------------------------------------

  Final asymmetric unit coordinates :

--------------------------------------------------------------------------------
   No.  Atomic        x           y           z         Radius
        Label       (Frac)      (Frac)      (Frac)       (Angs) 
--------------------------------------------------------------------------------
     1  K     c     0.042000    0.250000    0.490600    0.000000
     2  Ca    c     0.000000    0.000000    0.000000    0.000000
     3  F     c     0.471500    0.250000    0.581200    0.000000
     4  F     c     0.291600    0.040400    0.206800    0.000000
     5  F     s     0.471500    0.250000    0.581200    0.000000
     6  F     s     0.291600    0.040400    0.206800    0.000000
--------------------------------------------------------------------------------

  Final Cartesian lattice vectors (Angstroms) :

        5.549733    0.000000    0.000000
        0.000000    7.695129    0.000000
        0.000000    0.000000    5.444475


  Final cell parameters and derivatives :

--------------------------------------------------------------------------------
       a            5.549733 Angstrom     dE/de1(xx)    -0.000832 eV/strain
       b            7.695129 Angstrom     dE/de2(yy)    -0.000083 eV/strain
       c            5.444475 Angstrom     dE/de3(zz)     0.001185 eV/strain
       alpha       90.000000 Degrees      dE/de4(yz)     0.000000 eV/strain
       beta        90.000000 Degrees      dE/de5(xz)     0.000000 eV/strain
       gamma       90.000000 Degrees      dE/de6(xy)     0.000000 eV/strain
--------------------------------------------------------------------------------

  Primitive cell volume =           232.511272 Angs**3

  Density of cell =      3.890320 g/cm**3

  Non-primitive cell volume =           232.511272 Angs**3


  Final internal derivatives :

--------------------------------------------------------------------------------
   No.  Atomic          a             b             c           Radius
        Label          (eV)          (eV)          (eV)        (eV/Angs)
--------------------------------------------------------------------------------
      1 K     c       0.000000      0.000000      0.000000      0.000000
      2 Ca    c       0.000000      0.000000      0.000000      0.000000
      3 F     c       0.000000      0.000000      0.000000      0.000000
      4 F     c       0.000000      0.000000      0.000000      0.000000
      5 F     s       0.000000      0.000000      0.000000      0.000000
      6 F     s       0.000000      0.000000      0.000000      0.000000
--------------------------------------------------------------------------------
  Maximum abs         0.000000      0.000000      0.000000      0.000000
--------------------------------------------------------------------------------


  Born effective charge tensors : 

-------------------------------------------------------------------------------
  Atom             x           y             z
-------------------------------------------------------------------------------
   1 K     x       1.2581      0.0000     -0.0509
           y       0.0000      1.3160      0.0000
           z      -0.0554      0.0000      1.2449
-------------------------------------------------------------------------------
   2 Ca    x       1.9402      0.0147     -0.0301
           y       0.0001      1.8961     -0.0195
           z       0.0091      0.0310      1.9406
-------------------------------------------------------------------------------
   3 F     x      -0.9869      0.0000      0.0245
           y       0.0000     -1.1967      0.0000
           z       0.0429      0.0000     -0.9606
-------------------------------------------------------------------------------
   4 F     x      -1.1057      0.0262     -0.1103
           y       0.0345     -1.0077     -0.0296
           z      -0.1078     -0.0300     -1.1125
-------------------------------------------------------------------------------




  Elastic Constant Matrix: (Units=GPa)

-------------------------------------------------------------------------------
  Indices      1         2         3         4         5         6    
-------------------------------------------------------------------------------
       1    188.7556   83.9015   75.4138    0.0000    0.0000    0.0000
       2     83.9015  190.9663   91.3725    0.0000    0.0000    0.0000
       3     75.4138   91.3725  204.8674    0.0000    0.0000    0.0000
       4      0.0000    0.0000    0.0000   70.1494    0.0000    0.0000
       5      0.0000    0.0000    0.0000    0.0000   46.4845    0.0000
       6      0.0000    0.0000    0.0000    0.0000    0.0000   79.3570
-------------------------------------------------------------------------------


  Elastic Compliance Matrix: (Units=1/GPa)

-------------------------------------------------------------------------------
  Indices      1         2         3         4         5         6    
-------------------------------------------------------------------------------
       1    0.006936 -0.002321 -0.001518  0.000000  0.000000  0.000000
       2   -0.002321  0.007434 -0.002461  0.000000  0.000000  0.000000
       3   -0.001518 -0.002461  0.006538  0.000000  0.000000  0.000000
       4    0.000000  0.000000  0.000000  0.014255  0.000000  0.000000
       5    0.000000  0.000000  0.000000  0.000000  0.021513  0.000000
       6    0.000000  0.000000  0.000000  0.000000  0.000000  0.012601
-------------------------------------------------------------------------------

  Mechanical properties :

-------------------------------------------------------------------------------
  Convention :                    Reuss         Voigt         Hill
-------------------------------------------------------------------------------
  Bulk  Modulus (GPa)     =     120.37797     120.66279     120.52038
  Shear Modulus (GPa)     =      59.06932      61.45828      60.26380
-------------------------------------------------------------------------------
  Velocity S-wave (km/s)  =       3.89662       3.97464       3.93582
  Velocity P-wave (km/s)  =       7.15457       7.21664       7.18567
-------------------------------------------------------------------------------
  Compressibility (1/GPa) =    0.00830717
-------------------------------------------------------------------------------
  Stress axis :                     x             y             z
-------------------------------------------------------------------------------
  Youngs Moduli (GPa)     =     144.17422     134.51910     152.95866
-------------------------------------------------------------------------------
  Poissons Ratio (x)      =                     0.31222       0.23220
  Poissons Ratio (y)      =       0.33463                     0.37646
  Poissons Ratio (z)      =       0.21886       0.33108
-------------------------------------------------------------------------------


  Piezoelectric Strain Matrix: (Units=C/m**2)

-------------------------------------------------------------------------------
  Indices      1         2         3         4         5         6    
-------------------------------------------------------------------------------
       x     0.00000   0.00000   0.00000   0.00000   0.00000   0.00000
       y     0.00000   0.00000   0.00000   0.00000   0.00000   0.00000
       z     0.00000   0.00000   0.00000   0.00000   0.00000   0.00000
-------------------------------------------------------------------------------


  Piezoelectric Stress Matrix: (Units=10**-11 C/N)

-------------------------------------------------------------------------------
  Indices      1         2         3         4         5         6    
-------------------------------------------------------------------------------
       x     0.00000   0.00000   0.00000   0.00000   0.00000   0.00000
       y     0.00000   0.00000   0.00000   0.00000   0.00000   0.00000
       z     0.00000   0.00000   0.00000   0.00000   0.00000   0.00000
-------------------------------------------------------------------------------


  Static dielectric constant tensor : 

-------------------------------------------------------------------------------
              x         y         z
-------------------------------------------------------------------------------
       x     4.70871   0.00000   0.00000
       y     0.00000   4.96879   0.00000
       z     0.00000   0.00000   4.47362
--------------------------------------------------------------------------------

  High frequency dielectric constant tensor : 

-------------------------------------------------------------------------------
              x         y         z
-------------------------------------------------------------------------------
       x     1.70906   0.00000   0.00000
       y     0.00000   1.71183   0.00000
       z     0.00000   0.00000   1.70625
-------------------------------------------------------------------------------

  Static refractive indices : 

-------------------------------------------------------------------------------
    1 =    2.11509      2 =    2.16996      3 =    2.22908
-------------------------------------------------------------------------------

  High frequency refractive indices : 

-------------------------------------------------------------------------------
    1 =    1.30623      2 =    1.30731      3 =    1.30837
-------------------------------------------------------------------------------


  Time to end of optimisation =       0.0570 seconds


  Peak dynamic memory used =       0.73 MB 


  Timing analysis for GULP :

--------------------------------------------------------------------------------
  Task / Subroutine                                          Time (Seconds)
--------------------------------------------------------------------------------
  Calculation of reciprocal space energy and derivatives          0.0027
  Calculation of reciprocal space energy using symmetry           0.0047
  Calculation of real space energy and derivatives                0.0131
  Calculation of real space energy using symmetry                 0.0320
  Symmetry generation of equivalent positions                     0.0004
--------------------------------------------------------------------------------
  Total CPU time                                                  0.0571
--------------------------------------------------------------------------------


  CIF file written as perov.cif                                               


  Job Finished at 09:36.03  6th April      2017                               

