********************************************************************************
*                       GENERAL UTILITY LATTICE PROGRAM                        *
*                                 Julian Gale                                  *
*                      Nanochemistry Research Institute                        *
*                           Department of Chemistry                            *
*                    Curtin University, Western Australia                      *
********************************************************************************
* Version = 4.3.2 * Last modified =  3rd March 2015                            *
********************************************************************************
*  optimise     - perform optimisation run                                     *
*  cell_only    - only optimise unit cell                                      *
*  property     - calculate properties for final geometry                      *
********************************************************************************

  Job Started  at 09:36.03  6th April      2017                               

  Number of CPUs =     1


  Total number of configurations input =   1

********************************************************************************
*  Input for Configuration =   1                                               *
********************************************************************************

  Formula = K4Ca4F12                                                    

  Number of irreducible atoms/shells =       6


  Total number atoms/shells =      32

  Dimensionality = 3               :  Bulk   


  Symmetry :

  Crystal family                   :  Orthorhombic
  Crystal class  (Groth - 1921)    :  Orthorhombic Bipyramidal             

  Space group (centrosymmetric)    :  P N M A         

  Patterson group                  :  P m m m  

  Cartesian lattice vectors (Angstroms) :

        6.223500    0.000000    0.000000
        0.000000    8.710300    0.000000
        0.000000    0.000000    6.118000

  Cell parameters (Angstroms/Degrees):

  a =       6.2235    alpha =  90.0000
  b =       8.7103    beta  =  90.0000
  c =       6.1180    gamma =  90.0000

  Initial cell volume =         331.647921 Angs**3

  Temperature of configuration =  0.000     K 

  Pressure of configuration =         0.000 GPa 

  Fractional coordinates of asymmetric unit :

--------------------------------------------------------------------------------
   No.  Atomic       x           y          z         Charge      Occupancy
        Label      (Frac)      (Frac)     (Frac)        (e)         (Frac)  
--------------------------------------------------------------------------------
      1 K     c    0.042000    0.250000    0.490600     1.50000    1.000000    
      2 Ca    c    0.000000    0.000000    0.000000     1.80000    1.000000    
      3 F     c    0.471500    0.250000    0.581200     0.37800    1.000000    
      4 F     c    0.291600    0.040400    0.206800     0.37800    1.000000    
      5 F     s    0.471500    0.250000    0.581200    -1.47800    1.000000    
      6 F     s    0.291600    0.040400    0.206800    -1.47800    1.000000    
--------------------------------------------------------------------------------



********************************************************************************
*  General input information                                                   *
********************************************************************************

  Species output for all configurations : 

--------------------------------------------------------------------------------
  Species    Type    Atomic    Atomic    Charge       Radii (Angs)     Library
                     Number     Mass       (e)     Cova   Ionic  VDW   Symbol
--------------------------------------------------------------------------------
    K        Core       19      39.10   1.500000   1.330  0.000  2.800          
    Ca       Core       20      40.08   1.800000   0.990  0.000  2.750          
    F        Core        9      19.00   0.378000   0.710  0.000  1.300          
    F        Shell       9       0.00  -1.478000   0.710  0.000  1.300          
--------------------------------------------------------------------------------


  Lattice summation method               =    Ewald          (3-D)
                                         =    Parry          (2-D)
                                         =    Saunders et al (1-D)
  Accuracy factor for lattice sums       =   12.000


  Time limit = Infinity

  Maximum range for interatomic potentials =    100000.000000 Angstroms

  General interatomic potentials :

--------------------------------------------------------------------------------
Atom  Types   Potential         A         B         C         D     Cutoffs(Ang)
  1     2                                                            Min    Max 
--------------------------------------------------------------------------------
K    c K    c Buckingham    0.219E+04 0.192      0.00      0.00     0.000 10.000
Ca   c F    s Buckingham    0.148E+04 0.266      0.00      0.00     0.000 10.000
F    s F    s Buckingham     912.     0.271      13.8      0.00     0.000 10.000
K    c F    s Buckingham    0.352E+04 0.267      0.00      0.00     0.000 10.000
F    c F    s Spring (c-s)   28.0      0.00      0.00      0.00     0.000  0.800
--------------------------------------------------------------------------------

********************************************************************************
*  Output for configuration   1                                                *
********************************************************************************


  Components of energy : 

--------------------------------------------------------------------------------
  Interatomic potentials     =          10.66009013 eV
  Monopole - monopole (real) =         -80.56142511 eV
  Monopole - monopole (recip)=        -101.22527614 eV
  Monopole - monopole (total)=        -181.78670125 eV
--------------------------------------------------------------------------------
  Total lattice energy       =        -171.12661112 eV
--------------------------------------------------------------------------------
  Total lattice energy       =          -16511.1021 kJ/(mole unit cells)
--------------------------------------------------------------------------------


  Number of variables =        3

  Maximum number of calculations  =          1000
  Maximum Hessian update interval =            10
  Maximum step size               =   1.000000000
  Maximum parameter tolerance     =   0.000010000
  Maximum function  tolerance     =   0.000010000
  Maximum gradient  tolerance     =   0.001000000
  Maximum gradient  component     =   0.010000000

  Symmetry constrained optimisation

  Symmetry used for second derivatives

  Cell parameters to be optimised using strains

  Newton-Raphson optimiser to be used

  BFGS hessian update to be used

  Start of bulk optimisation :

  Cycle:      0 Energy:      -171.126611  Gnorm:     15.836198  CPU:    0.007
  ** Hessian calculated **
  Cycle:      1 Energy:      -174.849408  Gnorm:      5.179982  CPU:    0.013
  Cycle:      2 Energy:      -175.099011  Gnorm:      0.382674  CPU:    0.020
  Cycle:      3 Energy:      -175.102824  Gnorm:      0.068263  CPU:    0.027
  Cycle:      4 Energy:      -175.102874  Gnorm:      0.000635  CPU:    0.033


  **** Optimisation achieved ****


  Final energy =    -175.10287393 eV
  Final Gnorm  =       0.00012199

  Components of energy : 

--------------------------------------------------------------------------------
  Interatomic potentials     =          23.08743470 eV
  Monopole - monopole (real) =         -87.82748408 eV
  Monopole - monopole (recip)=        -110.36282455 eV
  Monopole - monopole (total)=        -198.19030864 eV
--------------------------------------------------------------------------------
  Total lattice energy       =        -175.10287393 eV
--------------------------------------------------------------------------------
  Total lattice energy       =          -16894.7506 kJ/(mole unit cells)
--------------------------------------------------------------------------------

  Final asymmetric unit coordinates :

--------------------------------------------------------------------------------
   No.  Atomic        x           y           z         Radius
        Label       (Frac)      (Frac)      (Frac)       (Angs) 
--------------------------------------------------------------------------------
     1  K     c     0.042000    0.250000    0.490600    0.000000
     2  Ca    c     0.000000    0.000000    0.000000    0.000000
     3  F     c     0.471500    0.250000    0.581200    0.000000
     4  F     c     0.291600    0.040400    0.206800    0.000000
     5  F     s     0.471500    0.250000    0.581200    0.000000
     6  F     s     0.291600    0.040400    0.206800    0.000000
--------------------------------------------------------------------------------

  Final Cartesian lattice vectors (Angstroms) :

        5.730595    0.000000    0.000000
        0.000000    7.947237    0.000000
        0.000000    0.000000    5.619027


  Final cell parameters and derivatives :

--------------------------------------------------------------------------------
       a            5.730595 Angstrom     dE/de1(xx)     0.000243 eV/strain
       b            7.947237 Angstrom     dE/de2(yy)     0.000008 eV/strain
       c            5.619027 Angstrom     dE/de3(zz)    -0.000274 eV/strain
       alpha       90.000000 Degrees      dE/de4(yz)     0.000000 eV/strain
       beta        90.000000 Degrees      dE/de5(xz)     0.000000 eV/strain
       gamma       90.000000 Degrees      dE/de6(xy)     0.000000 eV/strain
--------------------------------------------------------------------------------

  Primitive cell volume =           255.903939 Angs**3

  Density of cell =      3.534698 g/cm**3

  Non-primitive cell volume =           255.903939 Angs**3


  Final internal derivatives :

--------------------------------------------------------------------------------
   No.  Atomic          a             b             c           Radius
        Label          (eV)          (eV)          (eV)        (eV/Angs)
--------------------------------------------------------------------------------
      1 K     c       0.000000      0.000000      0.000000      0.000000
      2 Ca    c       0.000000      0.000000      0.000000      0.000000
      3 F     c       0.000000      0.000000      0.000000      0.000000
      4 F     c       0.000000      0.000000      0.000000      0.000000
      5 F     s       0.000000      0.000000      0.000000      0.000000
      6 F     s       0.000000      0.000000      0.000000      0.000000
--------------------------------------------------------------------------------
  Maximum abs         0.000000      0.000000      0.000000      0.000000
--------------------------------------------------------------------------------


  Born effective charge tensors : 

-------------------------------------------------------------------------------
  Atom             x           y             z
-------------------------------------------------------------------------------
   1 K     x       1.4459      0.0000     -0.0368
           y       0.0000      1.4943      0.0000
           z      -0.0418      0.0000      1.4341
-------------------------------------------------------------------------------
   2 Ca    x       1.4946      0.0153     -0.0090
           y       0.0079      1.4596      0.0003
           z      -0.0017      0.0119      1.4937
-------------------------------------------------------------------------------
   3 F     x      -0.9640      0.0000      0.0150
           y       0.0000     -0.9878      0.0000
           z       0.0209      0.0000     -0.9389
-------------------------------------------------------------------------------
   4 F     x      -0.9883      0.0229     -0.0154
           y       0.0315     -0.9830     -0.0333
           z      -0.0136     -0.0354     -0.9945
-------------------------------------------------------------------------------




  Elastic Constant Matrix: (Units=GPa)

-------------------------------------------------------------------------------
  Indices      1         2         3         4         5         6    
-------------------------------------------------------------------------------
       1    138.6318   58.5880   62.9646    0.0000    0.0000    0.0000
       2     58.5880  151.3395   62.7293    0.0000    0.0000    0.0000
       3     62.9646   62.7293  149.5312    0.0000    0.0000    0.0000
       4      0.0000    0.0000    0.0000   47.0726    0.0000    0.0000
       5      0.0000    0.0000    0.0000    0.0000   42.9599    0.0000
       6      0.0000    0.0000    0.0000    0.0000    0.0000   53.3397
-------------------------------------------------------------------------------


  Elastic Compliance Matrix: (Units=1/GPa)

-------------------------------------------------------------------------------
  Indices      1         2         3         4         5         6    
-------------------------------------------------------------------------------
       1    0.009630 -0.002478 -0.003015  0.000000  0.000000  0.000000
       2   -0.002478  0.008636 -0.002579  0.000000  0.000000  0.000000
       3   -0.003015 -0.002579  0.009039  0.000000  0.000000  0.000000
       4    0.000000  0.000000  0.000000  0.021244  0.000000  0.000000
       5    0.000000  0.000000  0.000000  0.000000  0.023278  0.000000
       6    0.000000  0.000000  0.000000  0.000000  0.000000  0.018748
-------------------------------------------------------------------------------

  Mechanical properties :

-------------------------------------------------------------------------------
  Convention :                    Reuss         Voigt         Hill
-------------------------------------------------------------------------------
  Bulk  Modulus (GPa)     =      89.60880      89.78515      89.69698
  Shear Modulus (GPa)     =      45.27297      45.68913      45.48105
-------------------------------------------------------------------------------
  Velocity S-wave (km/s)  =       3.57885       3.59526       3.58706
  Velocity P-wave (km/s)  =       6.51373       6.52959       6.52167
-------------------------------------------------------------------------------
  Compressibility (1/GPa) =    0.01115962
-------------------------------------------------------------------------------
  Stress axis :                     x             y             z
-------------------------------------------------------------------------------
  Youngs Moduli (GPa)     =     103.83890     115.79134     110.62678
-------------------------------------------------------------------------------
  Poissons Ratio (x)      =                     0.28696       0.33359
  Poissons Ratio (y)      =       0.25734                     0.28535
  Poissons Ratio (z)      =       0.31312       0.29867
-------------------------------------------------------------------------------


  Piezoelectric Strain Matrix: (Units=C/m**2)

-------------------------------------------------------------------------------
  Indices      1         2         3         4         5         6    
-------------------------------------------------------------------------------
       x     0.00000   0.00000   0.00000   0.00000   0.00000   0.00000
       y     0.00000   0.00000   0.00000   0.00000   0.00000   0.00000
       z     0.00000   0.00000   0.00000   0.00000   0.00000   0.00000
-------------------------------------------------------------------------------


  Piezoelectric Stress Matrix: (Units=10**-11 C/N)

-------------------------------------------------------------------------------
  Indices      1         2         3         4         5         6    
-------------------------------------------------------------------------------
       x     0.00000   0.00000   0.00000   0.00000   0.00000   0.00000
       y     0.00000   0.00000   0.00000   0.00000   0.00000   0.00000
       z     0.00000   0.00000   0.00000   0.00000   0.00000   0.00000
-------------------------------------------------------------------------------


  Static dielectric constant tensor : 

-------------------------------------------------------------------------------
              x         y         z
-------------------------------------------------------------------------------
       x     5.06807   0.00000   0.00000
       y     0.00000   6.43083   0.00000
       z     0.00000   0.00000   4.82767
--------------------------------------------------------------------------------

  High frequency dielectric constant tensor : 

-------------------------------------------------------------------------------
              x         y         z
-------------------------------------------------------------------------------
       x     1.64498   0.00000   0.00000
       y     0.00000   1.64755   0.00000
       z     0.00000   0.00000   1.64235
-------------------------------------------------------------------------------

  Static refractive indices : 

-------------------------------------------------------------------------------
    1 =    2.19720      2 =    2.25124      3 =    2.53591
-------------------------------------------------------------------------------

  High frequency refractive indices : 

-------------------------------------------------------------------------------
    1 =    1.28154      2 =    1.28257      3 =    1.28357
-------------------------------------------------------------------------------


  Time to end of optimisation =       0.0562 seconds


  Peak dynamic memory used =       0.73 MB 


  Timing analysis for GULP :

--------------------------------------------------------------------------------
  Task / Subroutine                                          Time (Seconds)
--------------------------------------------------------------------------------
  Calculation of reciprocal space energy and derivatives          0.0027
  Calculation of reciprocal space energy using symmetry           0.0047
  Calculation of real space energy and derivatives                0.0130
  Calculation of real space energy using symmetry                 0.0314
  Symmetry generation of equivalent positions                     0.0004
--------------------------------------------------------------------------------
  Total CPU time                                                  0.0563
--------------------------------------------------------------------------------


  CIF file written as perov.cif                                               


  Job Finished at 09:36.03  6th April      2017                               

