********************************************************************************
*                       GENERAL UTILITY LATTICE PROGRAM                        *
*                                 Julian Gale                                  *
*                      Nanochemistry Research Institute                        *
*                           Department of Chemistry                            *
*                    Curtin University, Western Australia                      *
********************************************************************************
* Version = 4.3.2 * Last modified =  3rd March 2015                            *
********************************************************************************
*  optimise     - perform optimisation run                                     *
*  cell_only    - only optimise unit cell                                      *
*  property     - calculate properties for final geometry                      *
********************************************************************************

  Job Started  at 09:36.00  6th April      2017                               

  Number of CPUs =     1


  Total number of configurations input =   1

********************************************************************************
*  Input for Configuration =   1                                               *
********************************************************************************

  Formula = K4Ca4F12                                                    

  Number of irreducible atoms/shells =       6


  Total number atoms/shells =      32

  Dimensionality = 3               :  Bulk   


  Symmetry :

  Crystal family                   :  Orthorhombic
  Crystal class  (Groth - 1921)    :  Orthorhombic Bipyramidal             

  Space group (centrosymmetric)    :  P N M A         

  Patterson group                  :  P m m m  

  Cartesian lattice vectors (Angstroms) :

        6.223500    0.000000    0.000000
        0.000000    8.710300    0.000000
        0.000000    0.000000    6.118000

  Cell parameters (Angstroms/Degrees):

  a =       6.2235    alpha =  90.0000
  b =       8.7103    beta  =  90.0000
  c =       6.1180    gamma =  90.0000

  Initial cell volume =         331.647921 Angs**3

  Temperature of configuration =  0.000     K 

  Pressure of configuration =         0.000 GPa 

  Fractional coordinates of asymmetric unit :

--------------------------------------------------------------------------------
   No.  Atomic       x           y          z         Charge      Occupancy
        Label      (Frac)      (Frac)     (Frac)        (e)         (Frac)  
--------------------------------------------------------------------------------
      1 K     c    0.042000    0.250000    0.490600     1.00000    1.000000    
      2 Ca    c    0.000000    0.000000    0.000000     1.70000    1.000000    
      3 F     c    0.471500    0.250000    0.581200     0.37800    1.000000    
      4 F     c    0.291600    0.040400    0.206800     0.37800    1.000000    
      5 F     s    0.471500    0.250000    0.581200    -1.27800    1.000000    
      6 F     s    0.291600    0.040400    0.206800    -1.27800    1.000000    
--------------------------------------------------------------------------------



********************************************************************************
*  General input information                                                   *
********************************************************************************

  Species output for all configurations : 

--------------------------------------------------------------------------------
  Species    Type    Atomic    Atomic    Charge       Radii (Angs)     Library
                     Number     Mass       (e)     Cova   Ionic  VDW   Symbol
--------------------------------------------------------------------------------
    K        Core       19      39.10   1.000000   1.330  0.000  2.800          
    Ca       Core       20      40.08   1.700000   0.990  0.000  2.750          
    F        Core        9      19.00   0.378000   0.710  0.000  1.300          
    F        Shell       9       0.00  -1.278000   0.710  0.000  1.300          
--------------------------------------------------------------------------------


  Lattice summation method               =    Ewald          (3-D)
                                         =    Parry          (2-D)
                                         =    Saunders et al (1-D)
  Accuracy factor for lattice sums       =   12.000


  Time limit = Infinity

  Maximum range for interatomic potentials =    100000.000000 Angstroms

  General interatomic potentials :

--------------------------------------------------------------------------------
Atom  Types   Potential         A         B         C         D     Cutoffs(Ang)
  1     2                                                            Min    Max 
--------------------------------------------------------------------------------
K    c K    c Buckingham    0.219E+04 0.192      0.00      0.00     0.000 10.000
Ca   c F    s Buckingham    0.148E+04 0.266      0.00      0.00     0.000 10.000
F    s F    s Buckingham     912.     0.271      13.8      0.00     0.000 10.000
K    c F    s Buckingham    0.352E+04 0.267      0.00      0.00     0.000 10.000
F    c F    s Spring (c-s)   20.9      0.00      0.00      0.00     0.000  0.800
--------------------------------------------------------------------------------

********************************************************************************
*  Output for configuration   1                                                *
********************************************************************************


  Components of energy : 

--------------------------------------------------------------------------------
  Interatomic potentials     =          10.66009013 eV
  Monopole - monopole (real) =         -57.26252119 eV
  Monopole - monopole (recip)=         -70.17224771 eV
  Monopole - monopole (total)=        -127.43476890 eV
--------------------------------------------------------------------------------
  Total lattice energy       =        -116.77467877 eV
--------------------------------------------------------------------------------
  Total lattice energy       =          -11266.9714 kJ/(mole unit cells)
--------------------------------------------------------------------------------


  Number of variables =        3

  Maximum number of calculations  =          1000
  Maximum Hessian update interval =            10
  Maximum step size               =   1.000000000
  Maximum parameter tolerance     =   0.000010000
  Maximum function  tolerance     =   0.000010000
  Maximum gradient  tolerance     =   0.001000000
  Maximum gradient  component     =   0.010000000

  Symmetry constrained optimisation

  Symmetry used for second derivatives

  Cell parameters to be optimised using strains

  Newton-Raphson optimiser to be used

  BFGS hessian update to be used

  Start of bulk optimisation :

  Cycle:      0 Energy:      -116.774679  Gnorm:      5.376569  CPU:    0.007
  ** Hessian calculated **
  Cycle:      1 Energy:      -117.276345  Gnorm:      0.639073  CPU:    0.013
  Cycle:      2 Energy:      -117.281960  Gnorm:      0.112329  CPU:    0.019
  Cycle:      3 Energy:      -117.282307  Gnorm:      0.013206  CPU:    0.026
  Cycle:      4 Energy:      -117.282311  Gnorm:      0.005188  CPU:    0.032


  **** Optimisation achieved ****


  Final energy =    -117.28231176 eV
  Final Gnorm  =       0.00002229

  Components of energy : 

--------------------------------------------------------------------------------
  Interatomic potentials     =          14.61884797 eV
  Monopole - monopole (real) =         -59.26694696 eV
  Monopole - monopole (recip)=         -72.63421277 eV
  Monopole - monopole (total)=        -131.90115973 eV
--------------------------------------------------------------------------------
  Total lattice energy       =        -117.28231176 eV
--------------------------------------------------------------------------------
  Total lattice energy       =          -11315.9503 kJ/(mole unit cells)
--------------------------------------------------------------------------------

  Final asymmetric unit coordinates :

--------------------------------------------------------------------------------
   No.  Atomic        x           y           z         Radius
        Label       (Frac)      (Frac)      (Frac)       (Angs) 
--------------------------------------------------------------------------------
     1  K     c     0.042000    0.250000    0.490600    0.000000
     2  Ca    c     0.000000    0.000000    0.000000    0.000000
     3  F     c     0.471500    0.250000    0.581200    0.000000
     4  F     c     0.291600    0.040400    0.206800    0.000000
     5  F     s     0.471500    0.250000    0.581200    0.000000
     6  F     s     0.291600    0.040400    0.206800    0.000000
--------------------------------------------------------------------------------

  Final Cartesian lattice vectors (Angstroms) :

        6.032221    0.000000    0.000000
        0.000000    8.371359    0.000000
        0.000000    0.000000    5.922092


  Final cell parameters and derivatives :

--------------------------------------------------------------------------------
       a            6.032221 Angstrom     dE/de1(xx)     0.000036 eV/strain
       b            8.371359 Angstrom     dE/de2(yy)     0.000048 eV/strain
       c            5.922092 Angstrom     dE/de3(zz)     0.000030 eV/strain
       alpha       90.000000 Degrees      dE/de4(yz)     0.000000 eV/strain
       beta        90.000000 Degrees      dE/de5(xz)     0.000000 eV/strain
       gamma       90.000000 Degrees      dE/de6(xy)     0.000000 eV/strain
--------------------------------------------------------------------------------

  Primitive cell volume =           299.053123 Angs**3

  Density of cell =      3.024691 g/cm**3

  Non-primitive cell volume =           299.053123 Angs**3


  Final internal derivatives :

--------------------------------------------------------------------------------
   No.  Atomic          a             b             c           Radius
        Label          (eV)          (eV)          (eV)        (eV/Angs)
--------------------------------------------------------------------------------
      1 K     c       0.000000      0.000000      0.000000      0.000000
      2 Ca    c       0.000000      0.000000      0.000000      0.000000
      3 F     c       0.000000      0.000000      0.000000      0.000000
      4 F     c       0.000000      0.000000      0.000000      0.000000
      5 F     s       0.000000      0.000000      0.000000      0.000000
      6 F     s       0.000000      0.000000      0.000000      0.000000
--------------------------------------------------------------------------------
  Maximum abs         0.000000      0.000000      0.000000      0.000000
--------------------------------------------------------------------------------


  Born effective charge tensors : 

-------------------------------------------------------------------------------
  Atom             x           y             z
-------------------------------------------------------------------------------
   1 K     x       0.9187      0.0000     -0.0331
           y       0.0000      0.9556      0.0000
           z      -0.0351      0.0000      0.9094
-------------------------------------------------------------------------------
   2 Ca    x       1.4821      0.0099     -0.0134
           y       0.0028      1.4527     -0.0046
           z       0.0016      0.0143      1.4824
-------------------------------------------------------------------------------
   3 F     x      -0.7606      0.0000      0.0175
           y       0.0000     -0.8598      0.0000
           z       0.0254      0.0000     -0.7399
-------------------------------------------------------------------------------
   4 F     x      -0.8201      0.0192     -0.0548
           y       0.0239     -0.7743     -0.0216
           z      -0.0534     -0.0221     -0.8259
-------------------------------------------------------------------------------




  Elastic Constant Matrix: (Units=GPa)

-------------------------------------------------------------------------------
  Indices      1         2         3         4         5         6    
-------------------------------------------------------------------------------
       1     83.6291   35.9697   39.4070    0.0000    0.0000    0.0000
       2     35.9697   89.9299   39.6293    0.0000    0.0000    0.0000
       3     39.4070   39.6293   87.0994    0.0000    0.0000    0.0000
       4      0.0000    0.0000    0.0000   27.0326    0.0000    0.0000
       5      0.0000    0.0000    0.0000    0.0000   23.9458    0.0000
       6      0.0000    0.0000    0.0000    0.0000    0.0000   31.3299
-------------------------------------------------------------------------------


  Elastic Compliance Matrix: (Units=1/GPa)

-------------------------------------------------------------------------------
  Indices      1         2         3         4         5         6    
-------------------------------------------------------------------------------
       1    0.016320 -0.004095 -0.005521  0.000000  0.000000  0.000000
       2   -0.004095  0.014936 -0.004943  0.000000  0.000000  0.000000
       3   -0.005521 -0.004943  0.016228  0.000000  0.000000  0.000000
       4    0.000000  0.000000  0.000000  0.036992  0.000000  0.000000
       5    0.000000  0.000000  0.000000  0.000000  0.041761  0.000000
       6    0.000000  0.000000  0.000000  0.000000  0.000000  0.031918
-------------------------------------------------------------------------------

  Mechanical properties :

-------------------------------------------------------------------------------
  Convention :                    Reuss         Voigt         Hill
-------------------------------------------------------------------------------
  Bulk  Modulus (GPa)     =      54.44604      54.51893      54.48248
  Shear Modulus (GPa)     =      25.85379      26.17182      26.01281
-------------------------------------------------------------------------------
  Velocity S-wave (km/s)  =       2.92362       2.94155       2.93260
  Velocity P-wave (km/s)  =       5.42193       5.43706       5.42950
-------------------------------------------------------------------------------
  Compressibility (1/GPa) =    0.01836681
-------------------------------------------------------------------------------
  Stress axis :                     x             y             z
-------------------------------------------------------------------------------
  Youngs Moduli (GPa)     =      61.27361      66.95305      61.62204
-------------------------------------------------------------------------------
  Poissons Ratio (x)      =                     0.27416       0.34020
  Poissons Ratio (y)      =       0.25091                     0.30460
  Poissons Ratio (z)      =       0.33828       0.33095
-------------------------------------------------------------------------------


  Piezoelectric Strain Matrix: (Units=C/m**2)

-------------------------------------------------------------------------------
  Indices      1         2         3         4         5         6    
-------------------------------------------------------------------------------
       x     0.00000   0.00000   0.00000   0.00000   0.00000   0.00000
       y     0.00000   0.00000   0.00000   0.00000   0.00000   0.00000
       z     0.00000   0.00000   0.00000   0.00000   0.00000   0.00000
-------------------------------------------------------------------------------


  Piezoelectric Stress Matrix: (Units=10**-11 C/N)

-------------------------------------------------------------------------------
  Indices      1         2         3         4         5         6    
-------------------------------------------------------------------------------
       x     0.00000   0.00000   0.00000   0.00000   0.00000   0.00000
       y     0.00000   0.00000   0.00000   0.00000   0.00000   0.00000
       z     0.00000   0.00000   0.00000   0.00000   0.00000   0.00000
-------------------------------------------------------------------------------


  Static dielectric constant tensor : 

-------------------------------------------------------------------------------
              x         y         z
-------------------------------------------------------------------------------
       x     3.92910   0.00000   0.00000
       y     0.00000   4.25646   0.00000
       z     0.00000   0.00000   3.68879
--------------------------------------------------------------------------------

  High frequency dielectric constant tensor : 

-------------------------------------------------------------------------------
              x         y         z
-------------------------------------------------------------------------------
       x     1.55371   0.00000   0.00000
       y     0.00000   1.55526   0.00000
       z     0.00000   0.00000   1.55171
-------------------------------------------------------------------------------

  Static refractive indices : 

-------------------------------------------------------------------------------
    1 =    1.92062      2 =    1.98220      3 =    2.06312
-------------------------------------------------------------------------------

  High frequency refractive indices : 

-------------------------------------------------------------------------------
    1 =    1.24568      2 =    1.24648      3 =    1.24710
-------------------------------------------------------------------------------


  Time to end of optimisation =       0.0548 seconds


  Peak dynamic memory used =       0.73 MB 


  Timing analysis for GULP :

--------------------------------------------------------------------------------
  Task / Subroutine                                          Time (Seconds)
--------------------------------------------------------------------------------
  Calculation of reciprocal space energy and derivatives          0.0027
  Calculation of reciprocal space energy using symmetry           0.0044
  Calculation of real space energy and derivatives                0.0133
  Calculation of real space energy using symmetry                 0.0297
  Symmetry generation of equivalent positions                     0.0004
--------------------------------------------------------------------------------
  Total CPU time                                                  0.0549
--------------------------------------------------------------------------------


  CIF file written as perov.cif                                               


  Job Finished at 09:36.00  6th April      2017                               

