********************************************************************************
*                       GENERAL UTILITY LATTICE PROGRAM                        *
*                                 Julian Gale                                  *
*                      Nanochemistry Research Institute                        *
*                           Department of Chemistry                            *
*                    Curtin University, Western Australia                      *
********************************************************************************
* Version = 4.3.2 * Last modified =  3rd March 2015                            *
********************************************************************************
*  optimise     - perform optimisation run                                     *
*  cell_only    - only optimise unit cell                                      *
*  property     - calculate properties for final geometry                      *
********************************************************************************

  Job Started  at 09:35.56  6th April      2017                               

  Number of CPUs =     1


  Total number of configurations input =   1

********************************************************************************
*  Input for Configuration =   1                                               *
********************************************************************************

  Formula = K4Ca4F12                                                    

  Number of irreducible atoms/shells =       6


  Total number atoms/shells =      32

  Dimensionality = 3               :  Bulk   


  Symmetry :

  Crystal family                   :  Orthorhombic
  Crystal class  (Groth - 1921)    :  Orthorhombic Bipyramidal             

  Space group (centrosymmetric)    :  P N M A         

  Patterson group                  :  P m m m  

  Cartesian lattice vectors (Angstroms) :

        6.223500    0.000000    0.000000
        0.000000    8.710300    0.000000
        0.000000    0.000000    6.118000

  Cell parameters (Angstroms/Degrees):

  a =       6.2235    alpha =  90.0000
  b =       8.7103    beta  =  90.0000
  c =       6.1180    gamma =  90.0000

  Initial cell volume =         331.647921 Angs**3

  Temperature of configuration =  0.000     K 

  Pressure of configuration =         0.000 GPa 

  Fractional coordinates of asymmetric unit :

--------------------------------------------------------------------------------
   No.  Atomic       x           y          z         Charge      Occupancy
        Label      (Frac)      (Frac)     (Frac)        (e)         (Frac)  
--------------------------------------------------------------------------------
      1 K     c    0.042000    0.250000    0.490600     0.50000    1.000000    
      2 Ca    c    0.000000    0.000000    0.000000     1.70000    1.000000    
      3 F     c    0.471500    0.250000    0.581200     0.37800    1.000000    
      4 F     c    0.291600    0.040400    0.206800     0.37800    1.000000    
      5 F     s    0.471500    0.250000    0.581200    -1.11133    1.000000    
      6 F     s    0.291600    0.040400    0.206800    -1.11133    1.000000    
--------------------------------------------------------------------------------



********************************************************************************
*  General input information                                                   *
********************************************************************************

  Species output for all configurations : 

--------------------------------------------------------------------------------
  Species    Type    Atomic    Atomic    Charge       Radii (Angs)     Library
                     Number     Mass       (e)     Cova   Ionic  VDW   Symbol
--------------------------------------------------------------------------------
    K        Core       19      39.10   0.500000   1.330  0.000  2.800          
    Ca       Core       20      40.08   1.700000   0.990  0.000  2.750          
    F        Core        9      19.00   0.378000   0.710  0.000  1.300          
    F        Shell       9       0.00  -1.111333   0.710  0.000  1.300          
--------------------------------------------------------------------------------


  Lattice summation method               =    Ewald          (3-D)
                                         =    Parry          (2-D)
                                         =    Saunders et al (1-D)
  Accuracy factor for lattice sums       =   12.000


  Time limit = Infinity

  Maximum range for interatomic potentials =    100000.000000 Angstroms

  General interatomic potentials :

--------------------------------------------------------------------------------
Atom  Types   Potential         A         B         C         D     Cutoffs(Ang)
  1     2                                                            Min    Max 
--------------------------------------------------------------------------------
K    c K    c Buckingham    0.219E+04 0.192      0.00      0.00     0.000 10.000
Ca   c F    s Buckingham    0.148E+04 0.266      0.00      0.00     0.000 10.000
F    s F    s Buckingham     912.     0.271      13.8      0.00     0.000 10.000
K    c F    s Buckingham    0.352E+04 0.267      0.00      0.00     0.000 10.000
F    c F    s Spring (c-s)   15.8      0.00      0.00      0.00     0.000  0.800
--------------------------------------------------------------------------------

********************************************************************************
*  Output for configuration   1                                                *
********************************************************************************


  Components of energy : 

--------------------------------------------------------------------------------
  Interatomic potentials     =          10.66009013 eV
  Monopole - monopole (real) =         -42.62467525 eV
  Monopole - monopole (recip)=         -52.71385971 eV
  Monopole - monopole (total)=         -95.33853496 eV
--------------------------------------------------------------------------------
  Total lattice energy       =         -84.67844483 eV
--------------------------------------------------------------------------------
  Total lattice energy       =           -8170.1755 kJ/(mole unit cells)
--------------------------------------------------------------------------------


  Number of variables =        3

  Maximum number of calculations  =          1000
  Maximum Hessian update interval =            10
  Maximum step size               =   1.000000000
  Maximum parameter tolerance     =   0.000010000
  Maximum function  tolerance     =   0.000010000
  Maximum gradient  tolerance     =   0.001000000
  Maximum gradient  component     =   0.010000000

  Symmetry constrained optimisation

  Symmetry used for second derivatives

  Cell parameters to be optimised using strains

  Newton-Raphson optimiser to be used

  BFGS hessian update to be used

  Start of bulk optimisation :

  Cycle:      0 Energy:       -84.678445  Gnorm:      0.832798  CPU:    0.007
  ** Hessian calculated **
  Cycle:      1 Energy:       -84.692292  Gnorm:      0.014940  CPU:    0.014


  **** Optimisation achieved ****


  Final energy =     -84.69229745 eV
  Final Gnorm  =       0.00002392

  Components of energy : 

--------------------------------------------------------------------------------
  Interatomic potentials     =          10.09511732 eV
  Monopole - monopole (real) =         -42.37647577 eV
  Monopole - monopole (recip)=         -52.41093900 eV
  Monopole - monopole (total)=         -94.78741477 eV
--------------------------------------------------------------------------------
  Total lattice energy       =         -84.69229745 eV
--------------------------------------------------------------------------------
  Total lattice energy       =           -8171.5121 kJ/(mole unit cells)
--------------------------------------------------------------------------------

  Final asymmetric unit coordinates :

--------------------------------------------------------------------------------
   No.  Atomic        x           y           z         Radius
        Label       (Frac)      (Frac)      (Frac)       (Angs) 
--------------------------------------------------------------------------------
     1  K     c     0.042000    0.250000    0.490600    0.000000
     2  Ca    c     0.000000    0.000000    0.000000    0.000000
     3  F     c     0.471500    0.250000    0.581200    0.000000
     4  F     c     0.291600    0.040400    0.206800    0.000000
     5  F     s     0.471500    0.250000    0.581200    0.000000
     6  F     s     0.291600    0.040400    0.206800    0.000000
--------------------------------------------------------------------------------

  Final Cartesian lattice vectors (Angstroms) :

        6.276200    0.000000    0.000000
        0.000000    8.715734    0.000000
        0.000000    0.000000    6.168500


  Final cell parameters and derivatives :

--------------------------------------------------------------------------------
       a            6.276200 Angstrom     dE/de1(xx)     0.000018 eV/strain
       b            8.715734 Angstrom     dE/de2(yy)     0.000065 eV/strain
       c            6.168500 Angstrom     dE/de3(zz)     0.000024 eV/strain
       alpha       90.000000 Degrees      dE/de4(yz)     0.000000 eV/strain
       beta        90.000000 Degrees      dE/de5(xz)     0.000000 eV/strain
       gamma       90.000000 Degrees      dE/de6(xy)     0.000000 eV/strain
--------------------------------------------------------------------------------

  Primitive cell volume =           337.427390 Angs**3

  Density of cell =      2.680705 g/cm**3

  Non-primitive cell volume =           337.427390 Angs**3


  Final internal derivatives :

--------------------------------------------------------------------------------
   No.  Atomic          a             b             c           Radius
        Label          (eV)          (eV)          (eV)        (eV/Angs)
--------------------------------------------------------------------------------
      1 K     c       0.000000      0.000000      0.000000      0.000000
      2 Ca    c       0.000000      0.000000      0.000000      0.000000
      3 F     c       0.000000      0.000000      0.000000      0.000000
      4 F     c       0.000000      0.000000      0.000000      0.000000
      5 F     s       0.000000      0.000000      0.000000      0.000000
      6 F     s       0.000000      0.000000      0.000000      0.000000
--------------------------------------------------------------------------------
  Maximum abs         0.000000      0.000000      0.000000      0.000000
--------------------------------------------------------------------------------


  Born effective charge tensors : 

-------------------------------------------------------------------------------
  Atom             x           y             z
-------------------------------------------------------------------------------
   1 K     x       0.3848      0.0000     -0.0377
           y       0.0000      0.4155      0.0000
           z      -0.0343      0.0000      0.3774
-------------------------------------------------------------------------------
   2 Ca    x       1.5532      0.0070     -0.0215
           y      -0.0024      1.5267     -0.0125
           z       0.0067      0.0206      1.5545
-------------------------------------------------------------------------------
   3 F     x      -0.5774      0.0000      0.0224
           y       0.0000     -0.7680      0.0000
           z       0.0319      0.0000     -0.5588
-------------------------------------------------------------------------------
   4 F     x      -0.6803      0.0177     -0.1022
           y       0.0202     -0.5871     -0.0120
           z      -0.1008     -0.0113     -0.6866
-------------------------------------------------------------------------------




  Elastic Constant Matrix: (Units=GPa)

-------------------------------------------------------------------------------
  Indices      1         2         3         4         5         6    
-------------------------------------------------------------------------------
       1     53.4015   23.3813   29.8936    0.0000    0.0000    0.0000
       2     23.3813   59.8635   27.5614    0.0000    0.0000    0.0000
       3     29.8936   27.5614   52.7203    0.0000    0.0000    0.0000
       4      0.0000    0.0000    0.0000   14.8796    0.0000    0.0000
       5      0.0000    0.0000    0.0000    0.0000   15.3809    0.0000
       6      0.0000    0.0000    0.0000    0.0000    0.0000   18.4527
-------------------------------------------------------------------------------


  Elastic Compliance Matrix: (Units=1/GPa)

-------------------------------------------------------------------------------
  Indices      1         2         3         4         5         6    
-------------------------------------------------------------------------------
       1    0.028467 -0.004856 -0.013603  0.000000  0.000000  0.000000
       2   -0.004856  0.022828 -0.009181  0.000000  0.000000  0.000000
       3   -0.013603 -0.009181  0.031481  0.000000  0.000000  0.000000
       4    0.000000  0.000000  0.000000  0.067206  0.000000  0.000000
       5    0.000000  0.000000  0.000000  0.000000  0.065016  0.000000
       6    0.000000  0.000000  0.000000  0.000000  0.000000  0.054193
-------------------------------------------------------------------------------

  Mechanical properties :

-------------------------------------------------------------------------------
  Convention :                    Reuss         Voigt         Hill
-------------------------------------------------------------------------------
  Bulk  Modulus (GPa)     =      36.36785      36.40645      36.38715
  Shear Modulus (GPa)     =      14.98645      15.41923      15.20284
-------------------------------------------------------------------------------
  Velocity S-wave (km/s)  =       2.36442       2.39832       2.38143
  Velocity P-wave (km/s)  =       4.58481       4.60979       4.59732
-------------------------------------------------------------------------------
  Compressibility (1/GPa) =    0.02749682
-------------------------------------------------------------------------------
  Stress axis :                     x             y             z
-------------------------------------------------------------------------------
  Youngs Moduli (GPa)     =      35.12865      43.80561      31.76539
-------------------------------------------------------------------------------
  Poissons Ratio (x)      =                     0.21271       0.43210
  Poissons Ratio (y)      =       0.17057                     0.29164
  Poissons Ratio (z)      =       0.47785       0.40218
-------------------------------------------------------------------------------


  Piezoelectric Strain Matrix: (Units=C/m**2)

-------------------------------------------------------------------------------
  Indices      1         2         3         4         5         6    
-------------------------------------------------------------------------------
       x     0.00000   0.00000   0.00000   0.00000   0.00000   0.00000
       y     0.00000   0.00000   0.00000   0.00000   0.00000   0.00000
       z     0.00000   0.00000   0.00000   0.00000   0.00000   0.00000
-------------------------------------------------------------------------------


  Piezoelectric Stress Matrix: (Units=10**-11 C/N)

-------------------------------------------------------------------------------
  Indices      1         2         3         4         5         6    
-------------------------------------------------------------------------------
       x     0.00000   0.00000   0.00000   0.00000   0.00000   0.00000
       y     0.00000   0.00000   0.00000   0.00000   0.00000   0.00000
       z     0.00000   0.00000   0.00000   0.00000   0.00000   0.00000
-------------------------------------------------------------------------------


  Static dielectric constant tensor : 

-------------------------------------------------------------------------------
              x         y         z
-------------------------------------------------------------------------------
       x     3.33084   0.00000   0.00000
       y     0.00000   3.22265   0.00000
       z     0.00000   0.00000   3.16246
--------------------------------------------------------------------------------

  High frequency dielectric constant tensor : 

-------------------------------------------------------------------------------
              x         y         z
-------------------------------------------------------------------------------
       x     1.49150   0.00000   0.00000
       y     0.00000   1.49245   0.00000
       z     0.00000   0.00000   1.48994
-------------------------------------------------------------------------------

  Static refractive indices : 

-------------------------------------------------------------------------------
    1 =    1.77833      2 =    1.79517      3 =    1.82506
-------------------------------------------------------------------------------

  High frequency refractive indices : 

-------------------------------------------------------------------------------
    1 =    1.22063      2 =    1.22127      3 =    1.22166
-------------------------------------------------------------------------------


  Time to end of optimisation =       0.0362 seconds


  Peak dynamic memory used =       0.73 MB 


  Timing analysis for GULP :

--------------------------------------------------------------------------------
  Task / Subroutine                                          Time (Seconds)
--------------------------------------------------------------------------------
  Calculation of reciprocal space energy and derivatives          0.0025
  Calculation of reciprocal space energy using symmetry           0.0023
  Calculation of real space energy and derivatives                0.0126
  Calculation of real space energy using symmetry                 0.0146
  Symmetry generation of equivalent positions                     0.0004
--------------------------------------------------------------------------------
  Total CPU time                                                  0.0362
--------------------------------------------------------------------------------


  CIF file written as perov.cif                                               


  Job Finished at 09:35.56  6th April      2017                               

