********************************************************************************
*                       GENERAL UTILITY LATTICE PROGRAM                        *
*                                 Julian Gale                                  *
*                      Nanochemistry Research Institute                        *
*                           Department of Chemistry                            *
*                    Curtin University, Western Australia                      *
********************************************************************************
* Version = 4.3.2 * Last modified =  3rd March 2015                            *
********************************************************************************
*  optimise     - perform optimisation run                                     *
*  cell_only    - only optimise unit cell                                      *
*  property     - calculate properties for final geometry                      *
********************************************************************************

  Job Started  at 09:35.58  6th April      2017                               

  Number of CPUs =     1


  Total number of configurations input =   1

********************************************************************************
*  Input for Configuration =   1                                               *
********************************************************************************

  Formula = K4Ca4F12                                                    

  Number of irreducible atoms/shells =       6


  Total number atoms/shells =      32

  Dimensionality = 3               :  Bulk   


  Symmetry :

  Crystal family                   :  Orthorhombic
  Crystal class  (Groth - 1921)    :  Orthorhombic Bipyramidal             

  Space group (centrosymmetric)    :  P N M A         

  Patterson group                  :  P m m m  

  Cartesian lattice vectors (Angstroms) :

        6.223500    0.000000    0.000000
        0.000000    8.710300    0.000000
        0.000000    0.000000    6.118000

  Cell parameters (Angstroms/Degrees):

  a =       6.2235    alpha =  90.0000
  b =       8.7103    beta  =  90.0000
  c =       6.1180    gamma =  90.0000

  Initial cell volume =         331.647921 Angs**3

  Temperature of configuration =  0.000     K 

  Pressure of configuration =         0.000 GPa 

  Fractional coordinates of asymmetric unit :

--------------------------------------------------------------------------------
   No.  Atomic       x           y          z         Charge      Occupancy
        Label      (Frac)      (Frac)     (Frac)        (e)         (Frac)  
--------------------------------------------------------------------------------
      1 K     c    0.042000    0.250000    0.490600     0.80000    1.000000    
      2 Ca    c    0.000000    0.000000    0.000000     1.50000    1.000000    
      3 F     c    0.471500    0.250000    0.581200     0.37800    1.000000    
      4 F     c    0.291600    0.040400    0.206800     0.37800    1.000000    
      5 F     s    0.471500    0.250000    0.581200    -1.14467    1.000000    
      6 F     s    0.291600    0.040400    0.206800    -1.14467    1.000000    
--------------------------------------------------------------------------------



********************************************************************************
*  General input information                                                   *
********************************************************************************

  Species output for all configurations : 

--------------------------------------------------------------------------------
  Species    Type    Atomic    Atomic    Charge       Radii (Angs)     Library
                     Number     Mass       (e)     Cova   Ionic  VDW   Symbol
--------------------------------------------------------------------------------
    K        Core       19      39.10   0.800000   1.330  0.000  2.800          
    Ca       Core       20      40.08   1.500000   0.990  0.000  2.750          
    F        Core        9      19.00   0.378000   0.710  0.000  1.300          
    F        Shell       9       0.00  -1.144667   0.710  0.000  1.300          
--------------------------------------------------------------------------------


  Lattice summation method               =    Ewald          (3-D)
                                         =    Parry          (2-D)
                                         =    Saunders et al (1-D)
  Accuracy factor for lattice sums       =   12.000


  Time limit = Infinity

  Maximum range for interatomic potentials =    100000.000000 Angstroms

  General interatomic potentials :

--------------------------------------------------------------------------------
Atom  Types   Potential         A         B         C         D     Cutoffs(Ang)
  1     2                                                            Min    Max 
--------------------------------------------------------------------------------
K    c K    c Buckingham    0.219E+04 0.192      0.00      0.00     0.000 10.000
Ca   c F    s Buckingham    0.148E+04 0.266      0.00      0.00     0.000 10.000
F    s F    s Buckingham     912.     0.271      13.8      0.00     0.000 10.000
K    c F    s Buckingham    0.352E+04 0.267      0.00      0.00     0.000 10.000
F    c F    s Spring (c-s)   16.8      0.00      0.00      0.00     0.000  0.800
--------------------------------------------------------------------------------

********************************************************************************
*  Output for configuration   1                                                *
********************************************************************************


  Components of energy : 

--------------------------------------------------------------------------------
  Interatomic potentials     =          10.66009013 eV
  Monopole - monopole (real) =         -42.26871455 eV
  Monopole - monopole (recip)=         -51.66426477 eV
  Monopole - monopole (total)=         -93.93297932 eV
--------------------------------------------------------------------------------
  Total lattice energy       =         -83.27288919 eV
--------------------------------------------------------------------------------
  Total lattice energy       =           -8034.5609 kJ/(mole unit cells)
--------------------------------------------------------------------------------


  Number of variables =        3

  Maximum number of calculations  =          1000
  Maximum Hessian update interval =            10
  Maximum step size               =   1.000000000
  Maximum parameter tolerance     =   0.000010000
  Maximum function  tolerance     =   0.000010000
  Maximum gradient  tolerance     =   0.001000000
  Maximum gradient  component     =   0.010000000

  Symmetry constrained optimisation

  Symmetry used for second derivatives

  Cell parameters to be optimised using strains

  Newton-Raphson optimiser to be used

  BFGS hessian update to be used

  Start of bulk optimisation :

  Cycle:      0 Energy:       -83.272889  Gnorm:      1.094217  CPU:    0.007
  ** Hessian calculated **
  Cycle:      1 Energy:       -83.296124  Gnorm:      0.015829  CPU:    0.014


  **** Optimisation achieved ****


  Final energy =     -83.29613087 eV
  Final Gnorm  =       0.00009058

  Components of energy : 

--------------------------------------------------------------------------------
  Interatomic potentials     =           9.90615856 eV
  Monopole - monopole (real) =         -41.93811111 eV
  Monopole - monopole (recip)=         -51.26417831 eV
  Monopole - monopole (total)=         -93.20228943 eV
--------------------------------------------------------------------------------
  Total lattice energy       =         -83.29613087 eV
--------------------------------------------------------------------------------
  Total lattice energy       =           -8036.8033 kJ/(mole unit cells)
--------------------------------------------------------------------------------

  Final asymmetric unit coordinates :

--------------------------------------------------------------------------------
   No.  Atomic        x           y           z         Radius
        Label       (Frac)      (Frac)      (Frac)       (Angs) 
--------------------------------------------------------------------------------
     1  K     c     0.042000    0.250000    0.490600    0.000000
     2  Ca    c     0.000000    0.000000    0.000000    0.000000
     3  F     c     0.471500    0.250000    0.581200    0.000000
     4  F     c     0.291600    0.040400    0.206800    0.000000
     5  F     s     0.471500    0.250000    0.581200    0.000000
     6  F     s     0.291600    0.040400    0.206800    0.000000
--------------------------------------------------------------------------------

  Final Cartesian lattice vectors (Angstroms) :

        6.290453    0.000000    0.000000
        0.000000    8.734483    0.000000
        0.000000    0.000000    6.178526


  Final cell parameters and derivatives :

--------------------------------------------------------------------------------
       a            6.290453 Angstrom     dE/de1(xx)     0.000073 eV/strain
       b            8.734483 Angstrom     dE/de2(yy)     0.000251 eV/strain
       c            6.178526 Angstrom     dE/de3(zz)     0.000073 eV/strain
       alpha       90.000000 Degrees      dE/de4(yz)     0.000000 eV/strain
       beta        90.000000 Degrees      dE/de5(xz)     0.000000 eV/strain
       gamma       90.000000 Degrees      dE/de6(xy)     0.000000 eV/strain
--------------------------------------------------------------------------------

  Primitive cell volume =           339.472062 Angs**3

  Density of cell =      2.664559 g/cm**3

  Non-primitive cell volume =           339.472062 Angs**3


  Final internal derivatives :

--------------------------------------------------------------------------------
   No.  Atomic          a             b             c           Radius
        Label          (eV)          (eV)          (eV)        (eV/Angs)
--------------------------------------------------------------------------------
      1 K     c       0.000000      0.000000      0.000000      0.000000
      2 Ca    c       0.000000      0.000000      0.000000      0.000000
      3 F     c       0.000000      0.000000      0.000000      0.000000
      4 F     c       0.000000      0.000000      0.000000      0.000000
      5 F     s       0.000000      0.000000      0.000000      0.000000
      6 F     s       0.000000      0.000000      0.000000      0.000000
--------------------------------------------------------------------------------
  Maximum abs         0.000000      0.000000      0.000000      0.000000
--------------------------------------------------------------------------------


  Born effective charge tensors : 

-------------------------------------------------------------------------------
  Atom             x           y             z
-------------------------------------------------------------------------------
   1 K     x       0.7355      0.0000     -0.0264
           y       0.0000      0.7644      0.0000
           z      -0.0274      0.0000      0.7280
-------------------------------------------------------------------------------
   2 Ca    x       1.3179      0.0072     -0.0101
           y       0.0021      1.2944     -0.0027
           z       0.0009      0.0108      1.3182
-------------------------------------------------------------------------------
   3 F     x      -0.6520      0.0000      0.0147
           y       0.0000     -0.7328      0.0000
           z       0.0204      0.0000     -0.6349
-------------------------------------------------------------------------------
   4 F     x      -0.7007      0.0159     -0.0452
           y       0.0191     -0.6630     -0.0172
           z      -0.0441     -0.0174     -0.7057
-------------------------------------------------------------------------------




  Elastic Constant Matrix: (Units=GPa)

-------------------------------------------------------------------------------
  Indices      1         2         3         4         5         6    
-------------------------------------------------------------------------------
       1     54.2989   23.0814   27.4977    0.0000    0.0000    0.0000
       2     23.0814   59.7113   25.6453    0.0000    0.0000    0.0000
       3     27.4977   25.6453   55.2018    0.0000    0.0000    0.0000
       4      0.0000    0.0000    0.0000   16.2094    0.0000    0.0000
       5      0.0000    0.0000    0.0000    0.0000   16.3635    0.0000
       6      0.0000    0.0000    0.0000    0.0000    0.0000   19.1023
-------------------------------------------------------------------------------


  Elastic Compliance Matrix: (Units=1/GPa)

-------------------------------------------------------------------------------
  Indices      1         2         3         4         5         6    
-------------------------------------------------------------------------------
       1    0.026056 -0.005619 -0.010369  0.000000  0.000000  0.000000
       2   -0.005619  0.022133 -0.007484  0.000000  0.000000  0.000000
       3   -0.010369 -0.007484  0.026757  0.000000  0.000000  0.000000
       4    0.000000  0.000000  0.000000  0.061693  0.000000  0.000000
       5    0.000000  0.000000  0.000000  0.000000  0.061112  0.000000
       6    0.000000  0.000000  0.000000  0.000000  0.000000  0.052350
-------------------------------------------------------------------------------

  Mechanical properties :

-------------------------------------------------------------------------------
  Convention :                    Reuss         Voigt         Hill
-------------------------------------------------------------------------------
  Bulk  Modulus (GPa)     =      35.70946      35.74008      35.72477
  Shear Modulus (GPa)     =      16.31972      16.53421      16.42696
-------------------------------------------------------------------------------
  Velocity S-wave (km/s)  =       2.47482       2.49103       2.48294
  Velocity P-wave (km/s)  =       4.64413       4.65691       4.65052
-------------------------------------------------------------------------------
  Compressibility (1/GPa) =    0.02800378
-------------------------------------------------------------------------------
  Stress axis :                     x             y             z
-------------------------------------------------------------------------------
  Youngs Moduli (GPa)     =      38.37901      45.18077      37.37307
-------------------------------------------------------------------------------
  Poissons Ratio (x)      =                     0.25385       0.38752
  Poissons Ratio (y)      =       0.21563                     0.27969
  Poissons Ratio (z)      =       0.39795       0.33812
-------------------------------------------------------------------------------


  Piezoelectric Strain Matrix: (Units=C/m**2)

-------------------------------------------------------------------------------
  Indices      1         2         3         4         5         6    
-------------------------------------------------------------------------------
       x     0.00000   0.00000   0.00000   0.00000   0.00000   0.00000
       y     0.00000   0.00000   0.00000   0.00000   0.00000   0.00000
       z     0.00000   0.00000   0.00000   0.00000   0.00000   0.00000
-------------------------------------------------------------------------------


  Piezoelectric Stress Matrix: (Units=10**-11 C/N)

-------------------------------------------------------------------------------
  Indices      1         2         3         4         5         6    
-------------------------------------------------------------------------------
       x     0.00000   0.00000   0.00000   0.00000   0.00000   0.00000
       y     0.00000   0.00000   0.00000   0.00000   0.00000   0.00000
       z     0.00000   0.00000   0.00000   0.00000   0.00000   0.00000
-------------------------------------------------------------------------------


  Static dielectric constant tensor : 

-------------------------------------------------------------------------------
              x         y         z
-------------------------------------------------------------------------------
       x     3.61322   0.00000   0.00000
       y     0.00000   3.88365   0.00000
       z     0.00000   0.00000   3.37122
--------------------------------------------------------------------------------

  High frequency dielectric constant tensor : 

-------------------------------------------------------------------------------
              x         y         z
-------------------------------------------------------------------------------
       x     1.49060   0.00000   0.00000
       y     0.00000   1.49172   0.00000
       z     0.00000   0.00000   1.48895
-------------------------------------------------------------------------------

  Static refractive indices : 

-------------------------------------------------------------------------------
    1 =    1.83609      2 =    1.90085      3 =    1.97070
-------------------------------------------------------------------------------

  High frequency refractive indices : 

-------------------------------------------------------------------------------
    1 =    1.22023      2 =    1.22090      3 =    1.22136
-------------------------------------------------------------------------------


  Time to end of optimisation =       0.0375 seconds


  Peak dynamic memory used =       0.73 MB 


  Timing analysis for GULP :

--------------------------------------------------------------------------------
  Task / Subroutine                                          Time (Seconds)
--------------------------------------------------------------------------------
  Calculation of reciprocal space energy and derivatives          0.0025
  Calculation of reciprocal space energy using symmetry           0.0023
  Calculation of real space energy and derivatives                0.0132
  Calculation of real space energy using symmetry                 0.0151
  Symmetry generation of equivalent positions                     0.0003
--------------------------------------------------------------------------------
  Total CPU time                                                  0.0375
--------------------------------------------------------------------------------


  CIF file written as perov.cif                                               


  Job Finished at 09:35.58  6th April      2017                               

