********************************************************************************
*                       GENERAL UTILITY LATTICE PROGRAM                        *
*                                 Julian Gale                                  *
*                      Nanochemistry Research Institute                        *
*                           Department of Chemistry                            *
*                    Curtin University, Western Australia                      *
********************************************************************************
* Version = 4.3.2 * Last modified =  3rd March 2015                            *
********************************************************************************
*  optimise     - perform optimisation run                                     *
*  cell_only    - only optimise unit cell                                      *
*  property     - calculate properties for final geometry                      *
********************************************************************************

  Job Started  at 09:35.59  6th April      2017                               

  Number of CPUs =     1


  Total number of configurations input =   1

********************************************************************************
*  Input for Configuration =   1                                               *
********************************************************************************

  Formula = K4Ca4F12                                                    

  Number of irreducible atoms/shells =       6


  Total number atoms/shells =      32

  Dimensionality = 3               :  Bulk   


  Symmetry :

  Crystal family                   :  Orthorhombic
  Crystal class  (Groth - 1921)    :  Orthorhombic Bipyramidal             

  Space group (centrosymmetric)    :  P N M A         

  Patterson group                  :  P m m m  

  Cartesian lattice vectors (Angstroms) :

        6.223500    0.000000    0.000000
        0.000000    8.710300    0.000000
        0.000000    0.000000    6.118000

  Cell parameters (Angstroms/Degrees):

  a =       6.2235    alpha =  90.0000
  b =       8.7103    beta  =  90.0000
  c =       6.1180    gamma =  90.0000

  Initial cell volume =         331.647921 Angs**3

  Temperature of configuration =  0.000     K 

  Pressure of configuration =         0.000 GPa 

  Fractional coordinates of asymmetric unit :

--------------------------------------------------------------------------------
   No.  Atomic       x           y          z         Charge      Occupancy
        Label      (Frac)      (Frac)     (Frac)        (e)         (Frac)  
--------------------------------------------------------------------------------
      1 K     c    0.042000    0.250000    0.490600     0.80000    1.000000    
      2 Ca    c    0.000000    0.000000    0.000000     2.10000    1.000000    
      3 F     c    0.471500    0.250000    0.581200     0.37800    1.000000    
      4 F     c    0.291600    0.040400    0.206800     0.37800    1.000000    
      5 F     s    0.471500    0.250000    0.581200    -1.34467    1.000000    
      6 F     s    0.291600    0.040400    0.206800    -1.34467    1.000000    
--------------------------------------------------------------------------------



********************************************************************************
*  General input information                                                   *
********************************************************************************

  Species output for all configurations : 

--------------------------------------------------------------------------------
  Species    Type    Atomic    Atomic    Charge       Radii (Angs)     Library
                     Number     Mass       (e)     Cova   Ionic  VDW   Symbol
--------------------------------------------------------------------------------
    K        Core       19      39.10   0.800000   1.330  0.000  2.800          
    Ca       Core       20      40.08   2.100000   0.990  0.000  2.750          
    F        Core        9      19.00   0.378000   0.710  0.000  1.300          
    F        Shell       9       0.00  -1.344667   0.710  0.000  1.300          
--------------------------------------------------------------------------------


  Lattice summation method               =    Ewald          (3-D)
                                         =    Parry          (2-D)
                                         =    Saunders et al (1-D)
  Accuracy factor for lattice sums       =   12.000


  Time limit = Infinity

  Maximum range for interatomic potentials =    100000.000000 Angstroms

  General interatomic potentials :

--------------------------------------------------------------------------------
Atom  Types   Potential         A         B         C         D     Cutoffs(Ang)
  1     2                                                            Min    Max 
--------------------------------------------------------------------------------
K    c K    c Buckingham    0.219E+04 0.192      0.00      0.00     0.000 10.000
Ca   c F    s Buckingham    0.148E+04 0.266      0.00      0.00     0.000 10.000
F    s F    s Buckingham     912.     0.271      13.8      0.00     0.000 10.000
K    c F    s Buckingham    0.352E+04 0.267      0.00      0.00     0.000 10.000
F    c F    s Spring (c-s)   23.2      0.00      0.00      0.00     0.000  0.800
--------------------------------------------------------------------------------

********************************************************************************
*  Output for configuration   1                                                *
********************************************************************************


  Components of energy : 

--------------------------------------------------------------------------------
  Interatomic potentials     =          10.66009013 eV
  Monopole - monopole (real) =         -71.13944038 eV
  Monopole - monopole (recip)=         -87.14664861 eV
  Monopole - monopole (total)=        -158.28608900 eV
--------------------------------------------------------------------------------
  Total lattice energy       =        -147.62599887 eV
--------------------------------------------------------------------------------
  Total lattice energy       =          -14243.6522 kJ/(mole unit cells)
--------------------------------------------------------------------------------


  Number of variables =        3

  Maximum number of calculations  =          1000
  Maximum Hessian update interval =            10
  Maximum step size               =   1.000000000
  Maximum parameter tolerance     =   0.000010000
  Maximum function  tolerance     =   0.000010000
  Maximum gradient  tolerance     =   0.001000000
  Maximum gradient  component     =   0.010000000

  Symmetry constrained optimisation

  Symmetry used for second derivatives

  Cell parameters to be optimised using strains

  Newton-Raphson optimiser to be used

  BFGS hessian update to be used

  Start of bulk optimisation :

  Cycle:      0 Energy:      -147.625999  Gnorm:     11.312597  CPU:    0.007
  ** Hessian calculated **
  Cycle:      1 Energy:      -149.653085  Gnorm:      2.740429  CPU:    0.013
  Cycle:      2 Energy:      -149.724518  Gnorm:      0.866536  CPU:    0.019
  Cycle:      3 Energy:      -149.736231  Gnorm:      0.263146  CPU:    0.024
  Cycle:      4 Energy:      -149.737382  Gnorm:      0.004705  CPU:    0.032


  **** Optimisation achieved ****


  Final energy =    -149.73738275 eV
  Final Gnorm  =       0.00021328

  Components of energy : 

--------------------------------------------------------------------------------
  Interatomic potentials     =          19.31078451 eV
  Monopole - monopole (real) =         -75.97301726 eV
  Monopole - monopole (recip)=         -93.07515001 eV
  Monopole - monopole (total)=        -169.04816727 eV
--------------------------------------------------------------------------------
  Total lattice energy       =        -149.73738275 eV
--------------------------------------------------------------------------------
  Total lattice energy       =          -14447.3685 kJ/(mole unit cells)
--------------------------------------------------------------------------------

  Final asymmetric unit coordinates :

--------------------------------------------------------------------------------
   No.  Atomic        x           y           z         Radius
        Label       (Frac)      (Frac)      (Frac)       (Angs) 
--------------------------------------------------------------------------------
     1  K     c     0.042000    0.250000    0.490600    0.000000
     2  Ca    c     0.000000    0.000000    0.000000    0.000000
     3  F     c     0.471500    0.250000    0.581200    0.000000
     4  F     c     0.291600    0.040400    0.206800    0.000000
     5  F     s     0.471500    0.250000    0.581200    0.000000
     6  F     s     0.291600    0.040400    0.206800    0.000000
--------------------------------------------------------------------------------

  Final Cartesian lattice vectors (Angstroms) :

        5.845891    0.000000    0.000000
        0.000000    8.110590    0.000000
        0.000000    0.000000    5.741435


  Final cell parameters and derivatives :

--------------------------------------------------------------------------------
       a            5.845891 Angstrom     dE/de1(xx)     0.000178 eV/strain
       b            8.110590 Angstrom     dE/de2(yy)     0.000584 eV/strain
       c            5.741435 Angstrom     dE/de3(zz)     0.000192 eV/strain
       alpha       90.000000 Degrees      dE/de4(yz)     0.000000 eV/strain
       beta        90.000000 Degrees      dE/de5(xz)     0.000000 eV/strain
       gamma       90.000000 Degrees      dE/de6(xy)     0.000000 eV/strain
--------------------------------------------------------------------------------

  Primitive cell volume =           272.222232 Angs**3

  Density of cell =      3.322812 g/cm**3

  Non-primitive cell volume =           272.222232 Angs**3


  Final internal derivatives :

--------------------------------------------------------------------------------
   No.  Atomic          a             b             c           Radius
        Label          (eV)          (eV)          (eV)        (eV/Angs)
--------------------------------------------------------------------------------
      1 K     c       0.000000      0.000000      0.000000      0.000000
      2 Ca    c       0.000000      0.000000      0.000000      0.000000
      3 F     c       0.000000      0.000000      0.000000      0.000000
      4 F     c       0.000000      0.000000      0.000000      0.000000
      5 F     s       0.000000      0.000000      0.000000      0.000000
      6 F     s       0.000000      0.000000      0.000000      0.000000
--------------------------------------------------------------------------------
  Maximum abs         0.000000      0.000000      0.000000      0.000000
--------------------------------------------------------------------------------


  Born effective charge tensors : 

-------------------------------------------------------------------------------
  Atom             x           y             z
-------------------------------------------------------------------------------
   1 K     x       0.6318      0.0000     -0.0534
           y       0.0000      0.6776      0.0000
           z      -0.0495      0.0000      0.6219
-------------------------------------------------------------------------------
   2 Ca    x       1.9262      0.0112     -0.0375
           y      -0.0054      1.8874     -0.0260
           z       0.0140      0.0362      1.9277
-------------------------------------------------------------------------------
   3 F     x      -0.7519      0.0000      0.0284
           y       0.0000     -1.0329      0.0000
           z       0.0459      0.0000     -0.7282
-------------------------------------------------------------------------------
   4 F     x      -0.9031      0.0238     -0.1491
           y       0.0282     -0.7661     -0.0171
           z      -0.1468     -0.0160     -0.9107
-------------------------------------------------------------------------------




  Elastic Constant Matrix: (Units=GPa)

-------------------------------------------------------------------------------
  Indices      1         2         3         4         5         6    
-------------------------------------------------------------------------------
       1    111.1615   50.4310   52.0225    0.0000    0.0000    0.0000
       2     50.4310  115.6088   58.0460    0.0000    0.0000    0.0000
       3     52.0225   58.0460  115.2874    0.0000    0.0000    0.0000
       4      0.0000    0.0000    0.0000   37.2622    0.0000    0.0000
       5      0.0000    0.0000    0.0000    0.0000   26.9880    0.0000
       6      0.0000    0.0000    0.0000    0.0000    0.0000   44.0861
-------------------------------------------------------------------------------


  Elastic Compliance Matrix: (Units=1/GPa)

-------------------------------------------------------------------------------
  Indices      1         2         3         4         5         6    
-------------------------------------------------------------------------------
       1    0.012363 -0.003469 -0.003832  0.000000  0.000000  0.000000
       2   -0.003469  0.012550 -0.004753  0.000000  0.000000  0.000000
       3   -0.003832 -0.004753  0.012796  0.000000  0.000000  0.000000
       4    0.000000  0.000000  0.000000  0.026837  0.000000  0.000000
       5    0.000000  0.000000  0.000000  0.000000  0.037054  0.000000
       6    0.000000  0.000000  0.000000  0.000000  0.000000  0.022683
-------------------------------------------------------------------------------

  Mechanical properties :

-------------------------------------------------------------------------------
  Convention :                    Reuss         Voigt         Hill
-------------------------------------------------------------------------------
  Bulk  Modulus (GPa)     =      73.52731      73.67298      73.60014
  Shear Modulus (GPa)     =      32.69581      33.77114      33.23348
-------------------------------------------------------------------------------
  Velocity S-wave (km/s)  =       3.13685       3.18801       3.16253
  Velocity P-wave (km/s)  =       5.93698       5.97688       5.95697
-------------------------------------------------------------------------------
  Compressibility (1/GPa) =    0.01360039
-------------------------------------------------------------------------------
  Stress axis :                     x             y             z
-------------------------------------------------------------------------------
  Youngs Moduli (GPa)     =      80.88582      79.68329      78.14674
-------------------------------------------------------------------------------
  Poissons Ratio (x)      =                     0.27642       0.29947
  Poissons Ratio (y)      =       0.28059                     0.37145
  Poissons Ratio (z)      =       0.30997       0.37876
-------------------------------------------------------------------------------


  Piezoelectric Strain Matrix: (Units=C/m**2)

-------------------------------------------------------------------------------
  Indices      1         2         3         4         5         6    
-------------------------------------------------------------------------------
       x     0.00000   0.00000   0.00000   0.00000   0.00000   0.00000
       y     0.00000   0.00000   0.00000   0.00000   0.00000   0.00000
       z     0.00000   0.00000   0.00000   0.00000   0.00000   0.00000
-------------------------------------------------------------------------------


  Piezoelectric Stress Matrix: (Units=10**-11 C/N)

-------------------------------------------------------------------------------
  Indices      1         2         3         4         5         6    
-------------------------------------------------------------------------------
       x     0.00000   0.00000   0.00000   0.00000   0.00000   0.00000
       y     0.00000   0.00000   0.00000   0.00000   0.00000   0.00000
       z     0.00000   0.00000   0.00000   0.00000   0.00000   0.00000
-------------------------------------------------------------------------------


  Static dielectric constant tensor : 

-------------------------------------------------------------------------------
              x         y         z
-------------------------------------------------------------------------------
       x     4.00135   0.00000   0.00000
       y     0.00000   3.84075   0.00000
       z     0.00000   0.00000   3.81164
--------------------------------------------------------------------------------

  High frequency dielectric constant tensor : 

-------------------------------------------------------------------------------
              x         y         z
-------------------------------------------------------------------------------
       x     1.60625   0.00000   0.00000
       y     0.00000   1.60780   0.00000
       z     0.00000   0.00000   1.60418
-------------------------------------------------------------------------------

  Static refractive indices : 

-------------------------------------------------------------------------------
    1 =    1.95234      2 =    1.95978      3 =    2.00034
-------------------------------------------------------------------------------

  High frequency refractive indices : 

-------------------------------------------------------------------------------
    1 =    1.26656      2 =    1.26738      3 =    1.26799
-------------------------------------------------------------------------------


  Time to end of optimisation =       0.0546 seconds


  Peak dynamic memory used =       0.73 MB 


  Timing analysis for GULP :

--------------------------------------------------------------------------------
  Task / Subroutine                                          Time (Seconds)
--------------------------------------------------------------------------------
  Calculation of reciprocal space energy and derivatives          0.0026
  Calculation of reciprocal space energy using symmetry           0.0044
  Calculation of real space energy and derivatives                0.0131
  Calculation of real space energy using symmetry                 0.0300
  Symmetry generation of equivalent positions                     0.0004
--------------------------------------------------------------------------------
  Total CPU time                                                  0.0547
--------------------------------------------------------------------------------


  CIF file written as perov.cif                                               


  Job Finished at 09:35.59  6th April      2017                               

