********************************************************************************
*                       GENERAL UTILITY LATTICE PROGRAM                        *
*                                 Julian Gale                                  *
*                      Nanochemistry Research Institute                        *
*                           Department of Chemistry                            *
*                    Curtin University, Western Australia                      *
********************************************************************************
* Version = 4.3.2 * Last modified =  3rd March 2015                            *
********************************************************************************
*  optimise     - perform optimisation run                                     *
*  cell_only    - only optimise unit cell                                      *
*  property     - calculate properties for final geometry                      *
********************************************************************************

  Job Started  at 09:36.03  6th April      2017                               

  Number of CPUs =     1


  Total number of configurations input =   1

********************************************************************************
*  Input for Configuration =   1                                               *
********************************************************************************

  Formula = K4Ca4F12                                                    

  Number of irreducible atoms/shells =       6


  Total number atoms/shells =      32

  Dimensionality = 3               :  Bulk   


  Symmetry :

  Crystal family                   :  Orthorhombic
  Crystal class  (Groth - 1921)    :  Orthorhombic Bipyramidal             

  Space group (centrosymmetric)    :  P N M A         

  Patterson group                  :  P m m m  

  Cartesian lattice vectors (Angstroms) :

        6.223500    0.000000    0.000000
        0.000000    8.710300    0.000000
        0.000000    0.000000    6.118000

  Cell parameters (Angstroms/Degrees):

  a =       6.2235    alpha =  90.0000
  b =       8.7103    beta  =  90.0000
  c =       6.1180    gamma =  90.0000

  Initial cell volume =         331.647921 Angs**3

  Temperature of configuration =  0.000     K 

  Pressure of configuration =         0.000 GPa 

  Fractional coordinates of asymmetric unit :

--------------------------------------------------------------------------------
   No.  Atomic       x           y          z         Charge      Occupancy
        Label      (Frac)      (Frac)     (Frac)        (e)         (Frac)  
--------------------------------------------------------------------------------
      1 K     c    0.042000    0.250000    0.490600     1.50000    1.000000    
      2 Ca    c    0.000000    0.000000    0.000000     1.50000    1.000000    
      3 F     c    0.471500    0.250000    0.581200     0.37800    1.000000    
      4 F     c    0.291600    0.040400    0.206800     0.37800    1.000000    
      5 F     s    0.471500    0.250000    0.581200    -1.37800    1.000000    
      6 F     s    0.291600    0.040400    0.206800    -1.37800    1.000000    
--------------------------------------------------------------------------------



********************************************************************************
*  General input information                                                   *
********************************************************************************

  Species output for all configurations : 

--------------------------------------------------------------------------------
  Species    Type    Atomic    Atomic    Charge       Radii (Angs)     Library
                     Number     Mass       (e)     Cova   Ionic  VDW   Symbol
--------------------------------------------------------------------------------
    K        Core       19      39.10   1.500000   1.330  0.000  2.800          
    Ca       Core       20      40.08   1.500000   0.990  0.000  2.750          
    F        Core        9      19.00   0.378000   0.710  0.000  1.300          
    F        Shell       9       0.00  -1.378000   0.710  0.000  1.300          
--------------------------------------------------------------------------------


  Lattice summation method               =    Ewald          (3-D)
                                         =    Parry          (2-D)
                                         =    Saunders et al (1-D)
  Accuracy factor for lattice sums       =   12.000


  Time limit = Infinity

  Maximum range for interatomic potentials =    100000.000000 Angstroms

  General interatomic potentials :

--------------------------------------------------------------------------------
Atom  Types   Potential         A         B         C         D     Cutoffs(Ang)
  1     2                                                            Min    Max 
--------------------------------------------------------------------------------
K    c K    c Buckingham    0.219E+04 0.192      0.00      0.00     0.000 10.000
Ca   c F    s Buckingham    0.148E+04 0.266      0.00      0.00     0.000 10.000
F    s F    s Buckingham     912.     0.271      13.8      0.00     0.000 10.000
K    c F    s Buckingham    0.352E+04 0.267      0.00      0.00     0.000 10.000
F    c F    s Spring (c-s)   24.3      0.00      0.00      0.00     0.000  0.800
--------------------------------------------------------------------------------

********************************************************************************
*  Output for configuration   1                                                *
********************************************************************************


  Components of energy : 

--------------------------------------------------------------------------------
  Interatomic potentials     =          10.66009013 eV
  Monopole - monopole (real) =         -64.64236641 eV
  Monopole - monopole (recip)=         -83.19778595 eV
  Monopole - monopole (total)=        -147.84015235 eV
--------------------------------------------------------------------------------
  Total lattice energy       =        -137.18006222 eV
--------------------------------------------------------------------------------
  Total lattice energy       =          -13235.7790 kJ/(mole unit cells)
--------------------------------------------------------------------------------


  Number of variables =        3

  Maximum number of calculations  =          1000
  Maximum Hessian update interval =            10
  Maximum step size               =   1.000000000
  Maximum parameter tolerance     =   0.000010000
  Maximum function  tolerance     =   0.000010000
  Maximum gradient  tolerance     =   0.001000000
  Maximum gradient  component     =   0.010000000

  Symmetry constrained optimisation

  Symmetry used for second derivatives

  Cell parameters to be optimised using strains

  Newton-Raphson optimiser to be used

  BFGS hessian update to be used

  Start of bulk optimisation :

  Cycle:      0 Energy:      -137.180062  Gnorm:      9.303648  CPU:    0.007
  ** Hessian calculated **
  Cycle:      1 Energy:      -138.592993  Gnorm:      1.883741  CPU:    0.013
  Cycle:      2 Energy:      -138.632052  Gnorm:      0.497811  CPU:    0.018
  Cycle:      3 Energy:      -138.635465  Gnorm:      0.050683  CPU:    0.025
  Cycle:      4 Energy:      -138.635520  Gnorm:      0.000496  CPU:    0.032


  **** Optimisation achieved ****


  Final energy =    -138.63552044 eV
  Final Gnorm  =       0.00000989

  Components of energy : 

--------------------------------------------------------------------------------
  Interatomic potentials     =          17.68739120 eV
  Monopole - monopole (real) =         -68.34898686 eV
  Monopole - monopole (recip)=         -87.97392478 eV
  Monopole - monopole (total)=        -156.32291163 eV
--------------------------------------------------------------------------------
  Total lattice energy       =        -138.63552044 eV
--------------------------------------------------------------------------------
  Total lattice energy       =          -13376.2085 kJ/(mole unit cells)
--------------------------------------------------------------------------------

  Final asymmetric unit coordinates :

--------------------------------------------------------------------------------
   No.  Atomic        x           y           z         Radius
        Label       (Frac)      (Frac)      (Frac)       (Angs) 
--------------------------------------------------------------------------------
     1  K     c     0.042000    0.250000    0.490600    0.000000
     2  Ca    c     0.000000    0.000000    0.000000    0.000000
     3  F     c     0.471500    0.250000    0.581200    0.000000
     4  F     c     0.291600    0.040400    0.206800    0.000000
     5  F     s     0.471500    0.250000    0.581200    0.000000
     6  F     s     0.291600    0.040400    0.206800    0.000000
--------------------------------------------------------------------------------

  Final Cartesian lattice vectors (Angstroms) :

        5.909314    0.000000    0.000000
        0.000000    8.196068    0.000000
        0.000000    0.000000    5.791761


  Final cell parameters and derivatives :

--------------------------------------------------------------------------------
       a            5.909314 Angstrom     dE/de1(xx)     0.000000 eV/strain
       b            8.196068 Angstrom     dE/de2(yy)    -0.000016 eV/strain
       c            5.791761 Angstrom     dE/de3(zz)    -0.000025 eV/strain
       alpha       90.000000 Degrees      dE/de4(yz)     0.000000 eV/strain
       beta        90.000000 Degrees      dE/de5(xz)     0.000000 eV/strain
       gamma       90.000000 Degrees      dE/de6(xy)     0.000000 eV/strain
--------------------------------------------------------------------------------

  Primitive cell volume =           280.513165 Angs**3

  Density of cell =      3.224602 g/cm**3

  Non-primitive cell volume =           280.513165 Angs**3


  Final internal derivatives :

--------------------------------------------------------------------------------
   No.  Atomic          a             b             c           Radius
        Label          (eV)          (eV)          (eV)        (eV/Angs)
--------------------------------------------------------------------------------
      1 K     c       0.000000      0.000000      0.000000      0.000000
      2 Ca    c       0.000000      0.000000      0.000000      0.000000
      3 F     c       0.000000      0.000000      0.000000      0.000000
      4 F     c       0.000000      0.000000      0.000000      0.000000
      5 F     s       0.000000      0.000000      0.000000      0.000000
      6 F     s       0.000000      0.000000      0.000000      0.000000
--------------------------------------------------------------------------------
  Maximum abs         0.000000      0.000000      0.000000      0.000000
--------------------------------------------------------------------------------


  Born effective charge tensors : 

-------------------------------------------------------------------------------
  Atom             x           y             z
-------------------------------------------------------------------------------
   1 K     x       1.4962      0.0000     -0.0288
           y       0.0000      1.5369      0.0000
           z      -0.0316      0.0000      1.4862
-------------------------------------------------------------------------------
   2 Ca    x       1.1964      0.0153     -0.0023
           y       0.0098      1.1674      0.0056
           z      -0.0039      0.0065      1.1944
-------------------------------------------------------------------------------
   3 F     x      -0.9157      0.0000      0.0079
           y       0.0000     -0.8391      0.0000
           z       0.0073      0.0000     -0.8925
-------------------------------------------------------------------------------
   4 F     x      -0.8884      0.0205      0.0356
           y       0.0285     -0.9326     -0.0337
           z       0.0370     -0.0363     -0.8941
-------------------------------------------------------------------------------




  Elastic Constant Matrix: (Units=GPa)

-------------------------------------------------------------------------------
  Indices      1         2         3         4         5         6    
-------------------------------------------------------------------------------
       1    100.9236   41.3828   51.9059    0.0000    0.0000    0.0000
       2     41.3828  116.5449   43.6876    0.0000    0.0000    0.0000
       3     51.9059   43.6876  107.5081    0.0000    0.0000    0.0000
       4      0.0000    0.0000    0.0000   30.8011    0.0000    0.0000
       5      0.0000    0.0000    0.0000    0.0000   36.8072    0.0000
       6      0.0000    0.0000    0.0000    0.0000    0.0000   35.3749
-------------------------------------------------------------------------------


  Elastic Compliance Matrix: (Units=1/GPa)

-------------------------------------------------------------------------------
  Indices      1         2         3         4         5         6    
-------------------------------------------------------------------------------
       1    0.013948 -0.002865 -0.005570  0.000000  0.000000  0.000000
       2   -0.002865  0.010711 -0.002969  0.000000  0.000000  0.000000
       3   -0.005570 -0.002969  0.013198  0.000000  0.000000  0.000000
       4    0.000000  0.000000  0.000000  0.032466  0.000000  0.000000
       5    0.000000  0.000000  0.000000  0.000000  0.027169  0.000000
       6    0.000000  0.000000  0.000000  0.000000  0.000000  0.028269
-------------------------------------------------------------------------------

  Mechanical properties :

-------------------------------------------------------------------------------
  Convention :                    Reuss         Voigt         Hill
-------------------------------------------------------------------------------
  Bulk  Modulus (GPa)     =      66.45437      66.54768      66.50103
  Shear Modulus (GPa)     =      32.55554      33.12999      32.84277
-------------------------------------------------------------------------------
  Velocity S-wave (km/s)  =       3.17742       3.20533       3.19140
  Velocity P-wave (km/s)  =       5.83694       5.85972       5.84834
-------------------------------------------------------------------------------
  Compressibility (1/GPa) =    0.01504792
-------------------------------------------------------------------------------
  Stress axis :                     x             y             z
-------------------------------------------------------------------------------
  Youngs Moduli (GPa)     =      71.69571      93.36504      75.77173
-------------------------------------------------------------------------------
  Poissons Ratio (x)      =                     0.26746       0.42205
  Poissons Ratio (y)      =       0.20538                     0.22499
  Poissons Ratio (z)      =       0.39935       0.27723
-------------------------------------------------------------------------------


  Piezoelectric Strain Matrix: (Units=C/m**2)

-------------------------------------------------------------------------------
  Indices      1         2         3         4         5         6    
-------------------------------------------------------------------------------
       x     0.00000   0.00000   0.00000   0.00000   0.00000   0.00000
       y     0.00000   0.00000   0.00000   0.00000   0.00000   0.00000
       z     0.00000   0.00000   0.00000   0.00000   0.00000   0.00000
-------------------------------------------------------------------------------


  Piezoelectric Stress Matrix: (Units=10**-11 C/N)

-------------------------------------------------------------------------------
  Indices      1         2         3         4         5         6    
-------------------------------------------------------------------------------
       x     0.00000   0.00000   0.00000   0.00000   0.00000   0.00000
       y     0.00000   0.00000   0.00000   0.00000   0.00000   0.00000
       z     0.00000   0.00000   0.00000   0.00000   0.00000   0.00000
-------------------------------------------------------------------------------


  Static dielectric constant tensor : 

-------------------------------------------------------------------------------
              x         y         z
-------------------------------------------------------------------------------
       x     6.04605   0.00000   0.00000
       y     0.00000  11.36482   0.00000
       z     0.00000   0.00000   6.06212
--------------------------------------------------------------------------------

  High frequency dielectric constant tensor : 

-------------------------------------------------------------------------------
              x         y         z
-------------------------------------------------------------------------------
       x     1.59150   0.00000   0.00000
       y     0.00000   1.59375   0.00000
       z     0.00000   0.00000   1.58914
-------------------------------------------------------------------------------

  Static refractive indices : 

-------------------------------------------------------------------------------
    1 =    2.45887      2 =    2.46214      3 =    3.37118
-------------------------------------------------------------------------------

  High frequency refractive indices : 

-------------------------------------------------------------------------------
    1 =    1.26061      2 =    1.26155      3 =    1.26244
-------------------------------------------------------------------------------


  Time to end of optimisation =       0.0555 seconds


  Peak dynamic memory used =       0.73 MB 


  Timing analysis for GULP :

--------------------------------------------------------------------------------
  Task / Subroutine                                          Time (Seconds)
--------------------------------------------------------------------------------
  Calculation of reciprocal space energy and derivatives          0.0026
  Calculation of reciprocal space energy using symmetry           0.0045
  Calculation of real space energy and derivatives                0.0128
  Calculation of real space energy using symmetry                 0.0308
  Symmetry generation of equivalent positions                     0.0004
--------------------------------------------------------------------------------
  Total CPU time                                                  0.0555
--------------------------------------------------------------------------------


  CIF file written as perov.cif                                               


  Job Finished at 09:36.03  6th April      2017                               

