********************************************************************************
*                       GENERAL UTILITY LATTICE PROGRAM                        *
*                                 Julian Gale                                  *
*                      Nanochemistry Research Institute                        *
*                           Department of Chemistry                            *
*                    Curtin University, Western Australia                      *
********************************************************************************
* Version = 4.3.2 * Last modified =  3rd March 2015                            *
********************************************************************************
*  optimise     - perform optimisation run                                     *
*  cell_only    - only optimise unit cell                                      *
*  property     - calculate properties for final geometry                      *
********************************************************************************

  Job Started  at 09:36.00  6th April      2017                               

  Number of CPUs =     1


  Total number of configurations input =   1

********************************************************************************
*  Input for Configuration =   1                                               *
********************************************************************************

  Formula = K4Ca4F12                                                    

  Number of irreducible atoms/shells =       6


  Total number atoms/shells =      32

  Dimensionality = 3               :  Bulk   


  Symmetry :

  Crystal family                   :  Orthorhombic
  Crystal class  (Groth - 1921)    :  Orthorhombic Bipyramidal             

  Space group (centrosymmetric)    :  P N M A         

  Patterson group                  :  P m m m  

  Cartesian lattice vectors (Angstroms) :

        6.223500    0.000000    0.000000
        0.000000    8.710300    0.000000
        0.000000    0.000000    6.118000

  Cell parameters (Angstroms/Degrees):

  a =       6.2235    alpha =  90.0000
  b =       8.7103    beta  =  90.0000
  c =       6.1180    gamma =  90.0000

  Initial cell volume =         331.647921 Angs**3

  Temperature of configuration =  0.000     K 

  Pressure of configuration =         0.000 GPa 

  Fractional coordinates of asymmetric unit :

--------------------------------------------------------------------------------
   No.  Atomic       x           y          z         Charge      Occupancy
        Label      (Frac)      (Frac)     (Frac)        (e)         (Frac)  
--------------------------------------------------------------------------------
      1 K     c    0.042000    0.250000    0.490600     1.00000    1.000000    
      2 Ca    c    0.000000    0.000000    0.000000     1.60000    1.000000    
      3 F     c    0.471500    0.250000    0.581200     0.37800    1.000000    
      4 F     c    0.291600    0.040400    0.206800     0.37800    1.000000    
      5 F     s    0.471500    0.250000    0.581200    -1.24467    1.000000    
      6 F     s    0.291600    0.040400    0.206800    -1.24467    1.000000    
--------------------------------------------------------------------------------



********************************************************************************
*  General input information                                                   *
********************************************************************************

  Species output for all configurations : 

--------------------------------------------------------------------------------
  Species    Type    Atomic    Atomic    Charge       Radii (Angs)     Library
                     Number     Mass       (e)     Cova   Ionic  VDW   Symbol
--------------------------------------------------------------------------------
    K        Core       19      39.10   1.000000   1.330  0.000  2.800          
    Ca       Core       20      40.08   1.600000   0.990  0.000  2.750          
    F        Core        9      19.00   0.378000   0.710  0.000  1.300          
    F        Shell       9       0.00  -1.244667   0.710  0.000  1.300          
--------------------------------------------------------------------------------


  Lattice summation method               =    Ewald          (3-D)
                                         =    Parry          (2-D)
                                         =    Saunders et al (1-D)
  Accuracy factor for lattice sums       =   12.000


  Time limit = Infinity

  Maximum range for interatomic potentials =    100000.000000 Angstroms

  General interatomic potentials :

--------------------------------------------------------------------------------
Atom  Types   Potential         A         B         C         D     Cutoffs(Ang)
  1     2                                                            Min    Max 
--------------------------------------------------------------------------------
K    c K    c Buckingham    0.219E+04 0.192      0.00      0.00     0.000 10.000
Ca   c F    s Buckingham    0.148E+04 0.266      0.00      0.00     0.000 10.000
F    s F    s Buckingham     912.     0.271      13.8      0.00     0.000 10.000
K    c F    s Buckingham    0.352E+04 0.267      0.00      0.00     0.000 10.000
F    c F    s Spring (c-s)   19.9      0.00      0.00      0.00     0.000  0.800
--------------------------------------------------------------------------------

********************************************************************************
*  Output for configuration   1                                                *
********************************************************************************


  Components of energy : 

--------------------------------------------------------------------------------
  Interatomic potentials     =          10.66009013 eV
  Monopole - monopole (real) =         -52.54022105 eV
  Monopole - monopole (recip)=         -64.54672147 eV
  Monopole - monopole (total)=        -117.08694252 eV
--------------------------------------------------------------------------------
  Total lattice energy       =        -106.42685239 eV
--------------------------------------------------------------------------------
  Total lattice energy       =          -10268.5644 kJ/(mole unit cells)
--------------------------------------------------------------------------------


  Number of variables =        3

  Maximum number of calculations  =          1000
  Maximum Hessian update interval =            10
  Maximum step size               =   1.000000000
  Maximum parameter tolerance     =   0.000010000
  Maximum function  tolerance     =   0.000010000
  Maximum gradient  tolerance     =   0.001000000
  Maximum gradient  component     =   0.010000000

  Symmetry constrained optimisation

  Symmetry used for second derivatives

  Cell parameters to be optimised using strains

  Newton-Raphson optimiser to be used

  BFGS hessian update to be used

  Start of bulk optimisation :

  Cycle:      0 Energy:      -106.426852  Gnorm:      3.387139  CPU:    0.007
  ** Hessian calculated **
  Cycle:      1 Energy:      -106.634162  Gnorm:      0.057837  CPU:    0.014
  Cycle:      2 Energy:      -106.634305  Gnorm:      0.012818  CPU:    0.019
  Cycle:      3 Energy:      -106.634306  Gnorm:      0.012545  CPU:    0.029
  Cycle:      4 Energy:      -106.634306  Gnorm:      0.011727  CPU:    0.036
  Cycle:      5 Energy:      -106.634307  Gnorm:      0.011317  CPU:    0.043
  Cycle:      6 Energy:      -106.634307  Gnorm:      0.011112  CPU:    0.050
  Cycle:      7 Energy:      -106.634307  Gnorm:      0.011010  CPU:    0.057
  Cycle:      8 Energy:      -106.634307  Gnorm:      0.011010  CPU:    0.063
  ** Hessian calculated **
  Cycle:      9 Energy:      -106.634307  Gnorm:      0.011010  CPU:    0.074
  ** Hessian calculated **


  **** Conditions for a minimum have not been satisfied. However ****
  **** no lower point can be found - treat results with caution  ****
  **** unless gradient norm is small (less than 0.1)             ****


  Final energy =    -106.63430705 eV
  Final Gnorm  =       0.01100994

  Components of energy : 

--------------------------------------------------------------------------------
  Interatomic potentials     =          13.11527511 eV
  Monopole - monopole (real) =         -53.73283077 eV
  Monopole - monopole (recip)=         -66.01675140 eV
  Monopole - monopole (total)=        -119.74958217 eV
--------------------------------------------------------------------------------
  Total lattice energy       =        -106.63430705 eV
--------------------------------------------------------------------------------
  Total lattice energy       =          -10288.5806 kJ/(mole unit cells)
--------------------------------------------------------------------------------

  Final asymmetric unit coordinates :

--------------------------------------------------------------------------------
   No.  Atomic        x           y           z         Radius
        Label       (Frac)      (Frac)      (Frac)       (Angs) 
--------------------------------------------------------------------------------
     1  K     c     0.042000    0.250000    0.490600    0.000000
     2  Ca    c     0.000000    0.000000    0.000000    0.000000
     3  F     c     0.471500    0.250000    0.581200    0.000000
     4  F     c     0.291600    0.040400    0.206800    0.000000
     5  F     s     0.471500    0.250000    0.581200    0.000000
     6  F     s     0.291600    0.040400    0.206800    0.000000
--------------------------------------------------------------------------------

  Final Cartesian lattice vectors (Angstroms) :

        6.103948    0.000000    0.000000
        0.000000    8.474798    0.000000
        0.000000    0.000000    5.992338


  Final cell parameters and derivatives :

--------------------------------------------------------------------------------
       a            6.103948 Angstrom     dE/de1(xx)    -0.005825 eV/strain
       b            8.474798 Angstrom     dE/de2(yy)     0.031945 eV/strain
       c            5.992338 Angstrom     dE/de3(zz)    -0.006048 eV/strain
       alpha       90.000000 Degrees      dE/de4(yz)     0.000000 eV/strain
       beta        90.000000 Degrees      dE/de5(xz)     0.000000 eV/strain
       gamma       90.000000 Degrees      dE/de6(xy)     0.000000 eV/strain
--------------------------------------------------------------------------------

  Primitive cell volume =           309.982015 Angs**3

  Density of cell =      2.918051 g/cm**3

  Non-primitive cell volume =           309.982015 Angs**3


  Final internal derivatives :

--------------------------------------------------------------------------------
   No.  Atomic          a             b             c           Radius
        Label          (eV)          (eV)          (eV)        (eV/Angs)
--------------------------------------------------------------------------------
      1 K     c       0.000000      0.000000      0.000000      0.000000
      2 Ca    c       0.000000      0.000000      0.000000      0.000000
      3 F     c       0.000000      0.000000      0.000000      0.000000
      4 F     c       0.000000      0.000000      0.000000      0.000000
      5 F     s       0.000000      0.000000      0.000000      0.000000
      6 F     s       0.000000      0.000000      0.000000      0.000000
--------------------------------------------------------------------------------
  Maximum abs         0.000000      0.000000      0.000000      0.000000
--------------------------------------------------------------------------------


  Born effective charge tensors : 

-------------------------------------------------------------------------------
  Atom             x           y             z
-------------------------------------------------------------------------------
   1 K     x       0.9350      0.0000     -0.0294
           y       0.0000      0.9694      0.0000
           z      -0.0315      0.0000      0.9261
-------------------------------------------------------------------------------
   2 Ca    x       1.3831      0.0094     -0.0102
           y       0.0035      1.3569     -0.0023
           z       0.0003      0.0112      1.3831
-------------------------------------------------------------------------------
   3 F     x      -0.7436      0.0000      0.0152
           y       0.0000     -0.8127      0.0000
           z       0.0213      0.0000     -0.7240
-------------------------------------------------------------------------------
   4 F     x      -0.7872      0.0180     -0.0387
           y       0.0226     -0.7568     -0.0215
           z      -0.0375     -0.0222     -0.7926
-------------------------------------------------------------------------------




  Elastic Constant Matrix: (Units=GPa)

-------------------------------------------------------------------------------
  Indices      1         2         3         4         5         6    
-------------------------------------------------------------------------------
       1     74.2614   31.5714   35.8164    0.0000    0.0000    0.0000
       2     31.5714   80.7935   34.6438    0.0000    0.0000    0.0000
       3     35.8164   34.6438   77.0074    0.0000    0.0000    0.0000
       4      0.0000    0.0000    0.0000   23.4081    0.0000    0.0000
       5      0.0000    0.0000    0.0000    0.0000   22.2135    0.0000
       6      0.0000    0.0000    0.0000    0.0000    0.0000   27.1496
-------------------------------------------------------------------------------


  Elastic Compliance Matrix: (Units=1/GPa)

-------------------------------------------------------------------------------
  Indices      1         2         3         4         5         6    
-------------------------------------------------------------------------------
       1    0.018540 -0.004395 -0.006646  0.000000  0.000000  0.000000
       2   -0.004395  0.016377 -0.005324  0.000000  0.000000  0.000000
       3   -0.006646 -0.005324  0.018472  0.000000  0.000000  0.000000
       4    0.000000  0.000000  0.000000  0.042720  0.000000  0.000000
       5    0.000000  0.000000  0.000000  0.000000  0.045018  0.000000
       6    0.000000  0.000000  0.000000  0.000000  0.000000  0.036833
-------------------------------------------------------------------------------

  Mechanical properties :

-------------------------------------------------------------------------------
  Convention :                    Reuss         Voigt         Hill
-------------------------------------------------------------------------------
  Bulk  Modulus (GPa)     =      48.40260      48.45839      48.43050
  Shear Modulus (GPa)     =      22.98059      23.22296      23.10178
-------------------------------------------------------------------------------
  Velocity S-wave (km/s)  =       2.80630       2.82106       2.81369
  Velocity P-wave (km/s)  =       5.20459       5.21705       5.21082
-------------------------------------------------------------------------------
  Compressibility (1/GPa) =    0.02066005
-------------------------------------------------------------------------------
  Stress axis :                     x             y             z
-------------------------------------------------------------------------------
  Youngs Moduli (GPa)     =      53.93839      61.05966      54.13703
-------------------------------------------------------------------------------
  Poissons Ratio (x)      =                     0.26836       0.35977
  Poissons Ratio (y)      =       0.23706                     0.28821
  Poissons Ratio (z)      =       0.35845       0.32506
-------------------------------------------------------------------------------


  Piezoelectric Strain Matrix: (Units=C/m**2)

-------------------------------------------------------------------------------
  Indices      1         2         3         4         5         6    
-------------------------------------------------------------------------------
       x     0.00000   0.00000   0.00000   0.00000   0.00000   0.00000
       y     0.00000   0.00000   0.00000   0.00000   0.00000   0.00000
       z     0.00000   0.00000   0.00000   0.00000   0.00000   0.00000
-------------------------------------------------------------------------------


  Piezoelectric Stress Matrix: (Units=10**-11 C/N)

-------------------------------------------------------------------------------
  Indices      1         2         3         4         5         6    
-------------------------------------------------------------------------------
       x     0.00000   0.00000   0.00000   0.00000   0.00000   0.00000
       y     0.00000   0.00000   0.00000   0.00000   0.00000   0.00000
       z     0.00000   0.00000   0.00000   0.00000   0.00000   0.00000
-------------------------------------------------------------------------------


  Static dielectric constant tensor : 

-------------------------------------------------------------------------------
              x         y         z
-------------------------------------------------------------------------------
       x     3.97237   0.00000   0.00000
       y     0.00000   4.45333   0.00000
       z     0.00000   0.00000   3.72096
--------------------------------------------------------------------------------

  High frequency dielectric constant tensor : 

-------------------------------------------------------------------------------
              x         y         z
-------------------------------------------------------------------------------
       x     1.53526   0.00000   0.00000
       y     0.00000   1.53689   0.00000
       z     0.00000   0.00000   1.53334
-------------------------------------------------------------------------------

  Static refractive indices : 

-------------------------------------------------------------------------------
    1 =    1.92898      2 =    1.99308      3 =    2.11029
-------------------------------------------------------------------------------

  High frequency refractive indices : 

-------------------------------------------------------------------------------
    1 =    1.23828      2 =    1.23906      3 =    1.23971
-------------------------------------------------------------------------------


  Time to end of optimisation =       0.1024 seconds


  Peak dynamic memory used =       0.73 MB 


  Timing analysis for GULP :

--------------------------------------------------------------------------------
  Task / Subroutine                                          Time (Seconds)
--------------------------------------------------------------------------------
  Calculation of reciprocal space energy and derivatives          0.0030
  Calculation of reciprocal space energy using symmetry           0.0110
  Calculation of real space energy and derivatives                0.0131
  Calculation of real space energy using symmetry                 0.0702
  Symmetry generation of equivalent positions                     0.0005
--------------------------------------------------------------------------------
  Total CPU time                                                  0.1025
--------------------------------------------------------------------------------


  CIF file written as perov.cif                                               


  Job Finished at 09:36.00  6th April      2017                               

