********************************************************************************
*                       GENERAL UTILITY LATTICE PROGRAM                        *
*                                 Julian Gale                                  *
*                      Nanochemistry Research Institute                        *
*                           Department of Chemistry                            *
*                    Curtin University, Western Australia                      *
********************************************************************************
* Version = 4.3.2 * Last modified =  3rd March 2015                            *
********************************************************************************
*  optimise     - perform optimisation run                                     *
*  cell_only    - only optimise unit cell                                      *
*  property     - calculate properties for final geometry                      *
********************************************************************************

  Job Started  at 09:36.01  6th April      2017                               

  Number of CPUs =     1


  Total number of configurations input =   1

********************************************************************************
*  Input for Configuration =   1                                               *
********************************************************************************

  Formula = K4Ca4F12                                                    

  Number of irreducible atoms/shells =       6


  Total number atoms/shells =      32

  Dimensionality = 3               :  Bulk   


  Symmetry :

  Crystal family                   :  Orthorhombic
  Crystal class  (Groth - 1921)    :  Orthorhombic Bipyramidal             

  Space group (centrosymmetric)    :  P N M A         

  Patterson group                  :  P m m m  

  Cartesian lattice vectors (Angstroms) :

        6.223500    0.000000    0.000000
        0.000000    8.710300    0.000000
        0.000000    0.000000    6.118000

  Cell parameters (Angstroms/Degrees):

  a =       6.2235    alpha =  90.0000
  b =       8.7103    beta  =  90.0000
  c =       6.1180    gamma =  90.0000

  Initial cell volume =         331.647921 Angs**3

  Temperature of configuration =  0.000     K 

  Pressure of configuration =         0.000 GPa 

  Fractional coordinates of asymmetric unit :

--------------------------------------------------------------------------------
   No.  Atomic       x           y          z         Charge      Occupancy
        Label      (Frac)      (Frac)     (Frac)        (e)         (Frac)  
--------------------------------------------------------------------------------
      1 K     c    0.042000    0.250000    0.490600     1.20000    1.000000    
      2 Ca    c    0.000000    0.000000    0.000000     2.00000    1.000000    
      3 F     c    0.471500    0.250000    0.581200     0.37800    1.000000    
      4 F     c    0.291600    0.040400    0.206800     0.37800    1.000000    
      5 F     s    0.471500    0.250000    0.581200    -1.44467    1.000000    
      6 F     s    0.291600    0.040400    0.206800    -1.44467    1.000000    
--------------------------------------------------------------------------------



********************************************************************************
*  General input information                                                   *
********************************************************************************

  Species output for all configurations : 

--------------------------------------------------------------------------------
  Species    Type    Atomic    Atomic    Charge       Radii (Angs)     Library
                     Number     Mass       (e)     Cova   Ionic  VDW   Symbol
--------------------------------------------------------------------------------
    K        Core       19      39.10   1.200000   1.330  0.000  2.800          
    Ca       Core       20      40.08   2.000000   0.990  0.000  2.750          
    F        Core        9      19.00   0.378000   0.710  0.000  1.300          
    F        Shell       9       0.00  -1.444667   0.710  0.000  1.300          
--------------------------------------------------------------------------------


  Lattice summation method               =    Ewald          (3-D)
                                         =    Parry          (2-D)
                                         =    Saunders et al (1-D)
  Accuracy factor for lattice sums       =   12.000


  Time limit = Infinity

  Maximum range for interatomic potentials =    100000.000000 Angstroms

  General interatomic potentials :

--------------------------------------------------------------------------------
Atom  Types   Potential         A         B         C         D     Cutoffs(Ang)
  1     2                                                            Min    Max 
--------------------------------------------------------------------------------
K    c K    c Buckingham    0.219E+04 0.192      0.00      0.00     0.000 10.000
Ca   c F    s Buckingham    0.148E+04 0.266      0.00      0.00     0.000 10.000
F    s F    s Buckingham     912.     0.271      13.8      0.00     0.000 10.000
K    c F    s Buckingham    0.352E+04 0.267      0.00      0.00     0.000 10.000
F    c F    s Spring (c-s)   26.8      0.00      0.00      0.00     0.000  0.800
--------------------------------------------------------------------------------

********************************************************************************
*  Output for configuration   1                                                *
********************************************************************************


  Components of energy : 

--------------------------------------------------------------------------------
  Interatomic potentials     =          10.66009013 eV
  Monopole - monopole (real) =         -80.15686152 eV
  Monopole - monopole (recip)=         -98.30067379 eV
  Monopole - monopole (total)=        -178.45753531 eV
--------------------------------------------------------------------------------
  Total lattice energy       =        -167.79744518 eV
--------------------------------------------------------------------------------
  Total lattice energy       =          -16189.8884 kJ/(mole unit cells)
--------------------------------------------------------------------------------


  Number of variables =        3

  Maximum number of calculations  =          1000
  Maximum Hessian update interval =            10
  Maximum step size               =   1.000000000
  Maximum parameter tolerance     =   0.000010000
  Maximum function  tolerance     =   0.000010000
  Maximum gradient  tolerance     =   0.001000000
  Maximum gradient  component     =   0.010000000

  Symmetry constrained optimisation

  Symmetry used for second derivatives

  Cell parameters to be optimised using strains

  Newton-Raphson optimiser to be used

  BFGS hessian update to be used

  Start of bulk optimisation :

  Cycle:      0 Energy:      -167.797445  Gnorm:     15.195027  CPU:    0.007
  ** Hessian calculated **
  Cycle:      1 Energy:      -171.267286  Gnorm:      4.642095  CPU:    0.013
  Cycle:      2 Energy:      -171.470780  Gnorm:      0.529170  CPU:    0.020
  Cycle:      3 Energy:      -171.477940  Gnorm:      0.061363  CPU:    0.027
  Cycle:      4 Energy:      -171.477984  Gnorm:      0.000833  CPU:    0.032


  **** Optimisation achieved ****


  Final energy =    -171.47798366 eV
  Final Gnorm  =       0.00009573

  Components of energy : 

--------------------------------------------------------------------------------
  Interatomic potentials     =          22.54229088 eV
  Monopole - monopole (real) =         -87.14336859 eV
  Monopole - monopole (recip)=        -106.87690595 eV
  Monopole - monopole (total)=        -194.02027454 eV
--------------------------------------------------------------------------------
  Total lattice energy       =        -171.47798366 eV
--------------------------------------------------------------------------------
  Total lattice energy       =          -16545.0041 kJ/(mole unit cells)
--------------------------------------------------------------------------------

  Final asymmetric unit coordinates :

--------------------------------------------------------------------------------
   No.  Atomic        x           y           z         Radius
        Label       (Frac)      (Frac)      (Frac)       (Angs) 
--------------------------------------------------------------------------------
     1  K     c     0.042000    0.250000    0.490600    0.000000
     2  Ca    c     0.000000    0.000000    0.000000    0.000000
     3  F     c     0.471500    0.250000    0.581200    0.000000
     4  F     c     0.291600    0.040400    0.206800    0.000000
     5  F     s     0.471500    0.250000    0.581200    0.000000
     6  F     s     0.291600    0.040400    0.206800    0.000000
--------------------------------------------------------------------------------

  Final Cartesian lattice vectors (Angstroms) :

        5.744611    0.000000    0.000000
        0.000000    7.967818    0.000000
        0.000000    0.000000    5.637594


  Final cell parameters and derivatives :

--------------------------------------------------------------------------------
       a            5.744611 Angstrom     dE/de1(xx)     0.000200 eV/strain
       b            7.967818 Angstrom     dE/de2(yy)     0.000010 eV/strain
       c            5.637594 Angstrom     dE/de3(zz)    -0.000206 eV/strain
       alpha       90.000000 Degrees      dE/de4(yz)     0.000000 eV/strain
       beta        90.000000 Degrees      dE/de5(xz)     0.000000 eV/strain
       gamma       90.000000 Degrees      dE/de6(xy)     0.000000 eV/strain
--------------------------------------------------------------------------------

  Primitive cell volume =           258.044037 Angs**3

  Density of cell =      3.505383 g/cm**3

  Non-primitive cell volume =           258.044037 Angs**3


  Final internal derivatives :

--------------------------------------------------------------------------------
   No.  Atomic          a             b             c           Radius
        Label          (eV)          (eV)          (eV)        (eV/Angs)
--------------------------------------------------------------------------------
      1 K     c       0.000000      0.000000      0.000000      0.000000
      2 Ca    c       0.000000      0.000000      0.000000      0.000000
      3 F     c       0.000000      0.000000      0.000000      0.000000
      4 F     c       0.000000      0.000000      0.000000      0.000000
      5 F     s       0.000000      0.000000      0.000000      0.000000
      6 F     s       0.000000      0.000000      0.000000      0.000000
--------------------------------------------------------------------------------
  Maximum abs         0.000000      0.000000      0.000000      0.000000
--------------------------------------------------------------------------------


  Born effective charge tensors : 

-------------------------------------------------------------------------------
  Atom             x           y             z
-------------------------------------------------------------------------------
   1 K     x       1.0809      0.0000     -0.0440
           y       0.0000      1.1294      0.0000
           z      -0.0470      0.0000      1.0693
-------------------------------------------------------------------------------
   2 Ca    x       1.7569      0.0127     -0.0228
           y       0.0014      1.7190     -0.0124
           z       0.0055      0.0235      1.7575
-------------------------------------------------------------------------------
   3 F     x      -0.8827      0.0000      0.0223
           y       0.0000     -1.0482      0.0000
           z       0.0359      0.0000     -0.8583
-------------------------------------------------------------------------------
   4 F     x      -0.9776      0.0234     -0.0885
           y       0.0300     -0.9001     -0.0257
           z      -0.0865     -0.0261     -0.9842
-------------------------------------------------------------------------------




  Elastic Constant Matrix: (Units=GPa)

-------------------------------------------------------------------------------
  Indices      1         2         3         4         5         6    
-------------------------------------------------------------------------------
       1    135.5013   59.5929   58.1369    0.0000    0.0000    0.0000
       2     59.5929  140.4743   65.3961    0.0000    0.0000    0.0000
       3     58.1369   65.3961  144.5333    0.0000    0.0000    0.0000
       4      0.0000    0.0000    0.0000   47.7407    0.0000    0.0000
       5      0.0000    0.0000    0.0000    0.0000   35.2410    0.0000
       6      0.0000    0.0000    0.0000    0.0000    0.0000   54.5853
-------------------------------------------------------------------------------


  Elastic Compliance Matrix: (Units=1/GPa)

-------------------------------------------------------------------------------
  Indices      1         2         3         4         5         6    
-------------------------------------------------------------------------------
       1    0.009792 -0.002940 -0.002609  0.000000  0.000000  0.000000
       2   -0.002940  0.009901 -0.003297  0.000000  0.000000  0.000000
       3   -0.002609 -0.003297  0.009460  0.000000  0.000000  0.000000
       4    0.000000  0.000000  0.000000  0.020946  0.000000  0.000000
       5    0.000000  0.000000  0.000000  0.000000  0.028376  0.000000
       6    0.000000  0.000000  0.000000  0.000000  0.000000  0.018320
-------------------------------------------------------------------------------

  Mechanical properties :

-------------------------------------------------------------------------------
  Convention :                    Reuss         Voigt         Hill
-------------------------------------------------------------------------------
  Bulk  Modulus (GPa)     =      87.24714      87.41787      87.33250
  Shear Modulus (GPa)     =      42.26282      43.33894      42.80088
-------------------------------------------------------------------------------
  Velocity S-wave (km/s)  =       3.47225       3.51618       3.49429
  Velocity P-wave (km/s)  =       6.40038       6.43606       6.41825
-------------------------------------------------------------------------------
  Compressibility (1/GPa) =    0.01146169
-------------------------------------------------------------------------------
  Stress axis :                     x             y             z
-------------------------------------------------------------------------------
  Youngs Moduli (GPa)     =     102.12323     101.00153     105.70748
-------------------------------------------------------------------------------
  Poissons Ratio (x)      =                     0.29691       0.27576
  Poissons Ratio (y)      =       0.30020                     0.34855
  Poissons Ratio (z)      =       0.26641       0.33304
-------------------------------------------------------------------------------


  Piezoelectric Strain Matrix: (Units=C/m**2)

-------------------------------------------------------------------------------
  Indices      1         2         3         4         5         6    
-------------------------------------------------------------------------------
       x     0.00000   0.00000   0.00000   0.00000   0.00000   0.00000
       y     0.00000   0.00000   0.00000   0.00000   0.00000   0.00000
       z     0.00000   0.00000   0.00000   0.00000   0.00000   0.00000
-------------------------------------------------------------------------------


  Piezoelectric Stress Matrix: (Units=10**-11 C/N)

-------------------------------------------------------------------------------
  Indices      1         2         3         4         5         6    
-------------------------------------------------------------------------------
       x     0.00000   0.00000   0.00000   0.00000   0.00000   0.00000
       y     0.00000   0.00000   0.00000   0.00000   0.00000   0.00000
       z     0.00000   0.00000   0.00000   0.00000   0.00000   0.00000
-------------------------------------------------------------------------------


  Static dielectric constant tensor : 

-------------------------------------------------------------------------------
              x         y         z
-------------------------------------------------------------------------------
       x     4.28985   0.00000   0.00000
       y     0.00000   4.53629   0.00000
       z     0.00000   0.00000   4.05889
--------------------------------------------------------------------------------

  High frequency dielectric constant tensor : 

-------------------------------------------------------------------------------
              x         y         z
-------------------------------------------------------------------------------
       x     1.63906   0.00000   0.00000
       y     0.00000   1.64121   0.00000
       z     0.00000   0.00000   1.63662
-------------------------------------------------------------------------------

  Static refractive indices : 

-------------------------------------------------------------------------------
    1 =    2.01467      2 =    2.07120      3 =    2.12986
-------------------------------------------------------------------------------

  High frequency refractive indices : 

-------------------------------------------------------------------------------
    1 =    1.27931      2 =    1.28026      3 =    1.28110
-------------------------------------------------------------------------------


  Time to end of optimisation =       0.0559 seconds


  Peak dynamic memory used =       0.73 MB 


  Timing analysis for GULP :

--------------------------------------------------------------------------------
  Task / Subroutine                                          Time (Seconds)
--------------------------------------------------------------------------------
  Calculation of reciprocal space energy and derivatives          0.0026
  Calculation of reciprocal space energy using symmetry           0.0046
  Calculation of real space energy and derivatives                0.0132
  Calculation of real space energy using symmetry                 0.0307
  Symmetry generation of equivalent positions                     0.0004
--------------------------------------------------------------------------------
  Total CPU time                                                  0.0559
--------------------------------------------------------------------------------


  CIF file written as perov.cif                                               


  Job Finished at 09:36.01  6th April      2017                               

