********************************************************************************
*                       GENERAL UTILITY LATTICE PROGRAM                        *
*                                 Julian Gale                                  *
*                      Nanochemistry Research Institute                        *
*                           Department of Chemistry                            *
*                    Curtin University, Western Australia                      *
********************************************************************************
* Version = 4.3.2 * Last modified =  3rd March 2015                            *
********************************************************************************
*  optimise     - perform optimisation run                                     *
*  cell_only    - only optimise unit cell                                      *
*  property     - calculate properties for final geometry                      *
********************************************************************************

  Job Started  at 09:35.58  6th April      2017                               

  Number of CPUs =     1


  Total number of configurations input =   1

********************************************************************************
*  Input for Configuration =   1                                               *
********************************************************************************

  Formula = K4Ca4F12                                                    

  Number of irreducible atoms/shells =       6


  Total number atoms/shells =      32

  Dimensionality = 3               :  Bulk   


  Symmetry :

  Crystal family                   :  Orthorhombic
  Crystal class  (Groth - 1921)    :  Orthorhombic Bipyramidal             

  Space group (centrosymmetric)    :  P N M A         

  Patterson group                  :  P m m m  

  Cartesian lattice vectors (Angstroms) :

        6.223500    0.000000    0.000000
        0.000000    8.710300    0.000000
        0.000000    0.000000    6.118000

  Cell parameters (Angstroms/Degrees):

  a =       6.2235    alpha =  90.0000
  b =       8.7103    beta  =  90.0000
  c =       6.1180    gamma =  90.0000

  Initial cell volume =         331.647921 Angs**3

  Temperature of configuration =  0.000     K 

  Pressure of configuration =         0.000 GPa 

  Fractional coordinates of asymmetric unit :

--------------------------------------------------------------------------------
   No.  Atomic       x           y          z         Charge      Occupancy
        Label      (Frac)      (Frac)     (Frac)        (e)         (Frac)  
--------------------------------------------------------------------------------
      1 K     c    0.042000    0.250000    0.490600     0.80000    1.000000    
      2 Ca    c    0.000000    0.000000    0.000000     1.80000    1.000000    
      3 F     c    0.471500    0.250000    0.581200     0.37800    1.000000    
      4 F     c    0.291600    0.040400    0.206800     0.37800    1.000000    
      5 F     s    0.471500    0.250000    0.581200    -1.24467    1.000000    
      6 F     s    0.291600    0.040400    0.206800    -1.24467    1.000000    
--------------------------------------------------------------------------------



********************************************************************************
*  General input information                                                   *
********************************************************************************

  Species output for all configurations : 

--------------------------------------------------------------------------------
  Species    Type    Atomic    Atomic    Charge       Radii (Angs)     Library
                     Number     Mass       (e)     Cova   Ionic  VDW   Symbol
--------------------------------------------------------------------------------
    K        Core       19      39.10   0.800000   1.330  0.000  2.800          
    Ca       Core       20      40.08   1.800000   0.990  0.000  2.750          
    F        Core        9      19.00   0.378000   0.710  0.000  1.300          
    F        Shell       9       0.00  -1.244667   0.710  0.000  1.300          
--------------------------------------------------------------------------------


  Lattice summation method               =    Ewald          (3-D)
                                         =    Parry          (2-D)
                                         =    Saunders et al (1-D)
  Accuracy factor for lattice sums       =   12.000


  Time limit = Infinity

  Maximum range for interatomic potentials =    100000.000000 Angstroms

  General interatomic potentials :

--------------------------------------------------------------------------------
Atom  Types   Potential         A         B         C         D     Cutoffs(Ang)
  1     2                                                            Min    Max 
--------------------------------------------------------------------------------
K    c K    c Buckingham    0.219E+04 0.192      0.00      0.00     0.000 10.000
Ca   c F    s Buckingham    0.148E+04 0.266      0.00      0.00     0.000 10.000
F    s F    s Buckingham     912.     0.271      13.8      0.00     0.000 10.000
K    c F    s Buckingham    0.352E+04 0.267      0.00      0.00     0.000 10.000
F    c F    s Spring (c-s)   19.9      0.00      0.00      0.00     0.000  0.800
--------------------------------------------------------------------------------

********************************************************************************
*  Output for configuration   1                                                *
********************************************************************************


  Components of energy : 

--------------------------------------------------------------------------------
  Interatomic potentials     =          10.66009013 eV
  Monopole - monopole (real) =         -55.73475166 eV
  Monopole - monopole (recip)=         -68.08047889 eV
  Monopole - monopole (total)=        -123.81523056 eV
--------------------------------------------------------------------------------
  Total lattice energy       =        -113.15514042 eV
--------------------------------------------------------------------------------
  Total lattice energy       =          -10917.7413 kJ/(mole unit cells)
--------------------------------------------------------------------------------


  Number of variables =        3

  Maximum number of calculations  =          1000
  Maximum Hessian update interval =            10
  Maximum step size               =   1.000000000
  Maximum parameter tolerance     =   0.000010000
  Maximum function  tolerance     =   0.000010000
  Maximum gradient  tolerance     =   0.001000000
  Maximum gradient  component     =   0.010000000

  Symmetry constrained optimisation

  Symmetry used for second derivatives

  Cell parameters to be optimised using strains

  Newton-Raphson optimiser to be used

  BFGS hessian update to be used

  Start of bulk optimisation :

  Cycle:      0 Energy:      -113.155140  Gnorm:      4.680287  CPU:    0.007
  ** Hessian calculated **
  Cycle:      1 Energy:      -113.539830  Gnorm:      0.481378  CPU:    0.013
  Cycle:      2 Energy:      -113.543094  Gnorm:      0.076225  CPU:    0.018
  Cycle:      3 Energy:      -113.543211  Gnorm:      0.008318  CPU:    0.024
  Cycle:      4 Energy:      -113.543213  Gnorm:      0.002818  CPU:    0.029


  **** Optimisation achieved ****


  Final energy =    -113.54321316 eV
  Final Gnorm  =       0.00002467

  Components of energy : 

--------------------------------------------------------------------------------
  Interatomic potentials     =          14.08954731 eV
  Monopole - monopole (real) =         -57.45069968 eV
  Monopole - monopole (recip)=         -70.18206079 eV
  Monopole - monopole (total)=        -127.63276048 eV
--------------------------------------------------------------------------------
  Total lattice energy       =        -113.54321316 eV
--------------------------------------------------------------------------------
  Total lattice energy       =          -10955.1844 kJ/(mole unit cells)
--------------------------------------------------------------------------------

  Final asymmetric unit coordinates :

--------------------------------------------------------------------------------
   No.  Atomic        x           y           z         Radius
        Label       (Frac)      (Frac)      (Frac)       (Angs) 
--------------------------------------------------------------------------------
     1  K     c     0.042000    0.250000    0.490600    0.000000
     2  Ca    c     0.000000    0.000000    0.000000    0.000000
     3  F     c     0.471500    0.250000    0.581200    0.000000
     4  F     c     0.291600    0.040400    0.206800    0.000000
     5  F     s     0.471500    0.250000    0.581200    0.000000
     6  F     s     0.291600    0.040400    0.206800    0.000000
--------------------------------------------------------------------------------

  Final Cartesian lattice vectors (Angstroms) :

        6.055678    0.000000    0.000000
        0.000000    8.404977    0.000000
        0.000000    0.000000    5.947906


  Final cell parameters and derivatives :

--------------------------------------------------------------------------------
       a            6.055678 Angstrom     dE/de1(xx)     0.000034 eV/strain
       b            8.404977 Angstrom     dE/de2(yy)     0.000055 eV/strain
       c            5.947906 Angstrom     dE/de3(zz)     0.000035 eV/strain
       alpha       90.000000 Degrees      dE/de4(yz)     0.000000 eV/strain
       beta        90.000000 Degrees      dE/de5(xz)     0.000000 eV/strain
       gamma       90.000000 Degrees      dE/de6(xy)     0.000000 eV/strain
--------------------------------------------------------------------------------

  Primitive cell volume =           302.735528 Angs**3

  Density of cell =      2.987899 g/cm**3

  Non-primitive cell volume =           302.735528 Angs**3


  Final internal derivatives :

--------------------------------------------------------------------------------
   No.  Atomic          a             b             c           Radius
        Label          (eV)          (eV)          (eV)        (eV/Angs)
--------------------------------------------------------------------------------
      1 K     c       0.000000      0.000000      0.000000      0.000000
      2 Ca    c       0.000000      0.000000      0.000000      0.000000
      3 F     c       0.000000      0.000000      0.000000      0.000000
      4 F     c       0.000000      0.000000      0.000000      0.000000
      5 F     s       0.000000      0.000000      0.000000      0.000000
      6 F     s       0.000000      0.000000      0.000000      0.000000
--------------------------------------------------------------------------------
  Maximum abs         0.000000      0.000000      0.000000      0.000000
--------------------------------------------------------------------------------


  Born effective charge tensors : 

-------------------------------------------------------------------------------
  Atom             x           y             z
-------------------------------------------------------------------------------
   1 K     x       0.6872      0.0000     -0.0386
           y       0.0000      0.7241      0.0000
           z      -0.0381      0.0000      0.6782
-------------------------------------------------------------------------------
   2 Ca    x       1.6133      0.0090     -0.0207
           y      -0.0005      1.5827     -0.0112
           z       0.0056      0.0205      1.6143
-------------------------------------------------------------------------------
   3 F     x      -0.7037      0.0000      0.0217
           y       0.0000     -0.8743      0.0000
           z       0.0325      0.0000     -0.6829
-------------------------------------------------------------------------------
   4 F     x      -0.7984      0.0197     -0.0918
           y       0.0236     -0.7163     -0.0175
           z      -0.0902     -0.0172     -0.8048
-------------------------------------------------------------------------------




  Elastic Constant Matrix: (Units=GPa)

-------------------------------------------------------------------------------
  Indices      1         2         3         4         5         6    
-------------------------------------------------------------------------------
       1     79.2978   34.8379   38.4201    0.0000    0.0000    0.0000
       2     34.8379   84.7745   39.3660    0.0000    0.0000    0.0000
       3     38.4201   39.3660   81.5566    0.0000    0.0000    0.0000
       4      0.0000    0.0000    0.0000   25.2592    0.0000    0.0000
       5      0.0000    0.0000    0.0000    0.0000   21.4084    0.0000
       6      0.0000    0.0000    0.0000    0.0000    0.0000   29.8075
-------------------------------------------------------------------------------


  Elastic Compliance Matrix: (Units=1/GPa)

-------------------------------------------------------------------------------
  Indices      1         2         3         4         5         6    
-------------------------------------------------------------------------------
       1    0.017494 -0.004334 -0.006149  0.000000  0.000000  0.000000
       2   -0.004334  0.016277 -0.005815  0.000000  0.000000  0.000000
       3   -0.006149 -0.005815  0.017965  0.000000  0.000000  0.000000
       4    0.000000  0.000000  0.000000  0.039589  0.000000  0.000000
       5    0.000000  0.000000  0.000000  0.000000  0.046711  0.000000
       6    0.000000  0.000000  0.000000  0.000000  0.000000  0.033549
-------------------------------------------------------------------------------

  Mechanical properties :

-------------------------------------------------------------------------------
  Convention :                    Reuss         Voigt         Hill
-------------------------------------------------------------------------------
  Bulk  Modulus (GPa)     =      52.24667      52.31966      52.28316
  Shear Modulus (GPa)     =      23.74601      24.16203      23.95402
-------------------------------------------------------------------------------
  Velocity S-wave (km/s)  =       2.81911       2.84370       2.83143
  Velocity P-wave (km/s)  =       5.29930       5.31909       5.30920
-------------------------------------------------------------------------------
  Compressibility (1/GPa) =    0.01913998
-------------------------------------------------------------------------------
  Stress axis :                     x             y             z
-------------------------------------------------------------------------------
  Youngs Moduli (GPa)     =      57.16251      61.43546      55.66303
-------------------------------------------------------------------------------
  Poissons Ratio (x)      =                     0.26623       0.34230
  Poissons Ratio (y)      =       0.24772                     0.32370
  Poissons Ratio (z)      =       0.35152       0.35726
-------------------------------------------------------------------------------


  Piezoelectric Strain Matrix: (Units=C/m**2)

-------------------------------------------------------------------------------
  Indices      1         2         3         4         5         6    
-------------------------------------------------------------------------------
       x     0.00000   0.00000   0.00000   0.00000   0.00000   0.00000
       y     0.00000   0.00000   0.00000   0.00000   0.00000   0.00000
       z     0.00000   0.00000   0.00000   0.00000   0.00000   0.00000
-------------------------------------------------------------------------------


  Piezoelectric Stress Matrix: (Units=10**-11 C/N)

-------------------------------------------------------------------------------
  Indices      1         2         3         4         5         6    
-------------------------------------------------------------------------------
       x     0.00000   0.00000   0.00000   0.00000   0.00000   0.00000
       y     0.00000   0.00000   0.00000   0.00000   0.00000   0.00000
       z     0.00000   0.00000   0.00000   0.00000   0.00000   0.00000
-------------------------------------------------------------------------------


  Static dielectric constant tensor : 

-------------------------------------------------------------------------------
              x         y         z
-------------------------------------------------------------------------------
       x     3.66071   0.00000   0.00000
       y     0.00000   3.68709   0.00000
       z     0.00000   0.00000   3.45630
--------------------------------------------------------------------------------

  High frequency dielectric constant tensor : 

-------------------------------------------------------------------------------
              x         y         z
-------------------------------------------------------------------------------
       x     1.54650   0.00000   0.00000
       y     0.00000   1.54785   0.00000
       z     0.00000   0.00000   1.54462
-------------------------------------------------------------------------------

  Static refractive indices : 

-------------------------------------------------------------------------------
    1 =    1.85911      2 =    1.91330      3 =    1.92018
-------------------------------------------------------------------------------

  High frequency refractive indices : 

-------------------------------------------------------------------------------
    1 =    1.24283      2 =    1.24359      3 =    1.24413
-------------------------------------------------------------------------------


  Time to end of optimisation =       0.0519 seconds


  Peak dynamic memory used =       0.73 MB 


  Timing analysis for GULP :

--------------------------------------------------------------------------------
  Task / Subroutine                                          Time (Seconds)
--------------------------------------------------------------------------------
  Calculation of reciprocal space energy and derivatives          0.0026
  Calculation of reciprocal space energy using symmetry           0.0042
  Calculation of real space energy and derivatives                0.0126
  Calculation of real space energy using symmetry                 0.0279
  Symmetry generation of equivalent positions                     0.0004
--------------------------------------------------------------------------------
  Total CPU time                                                  0.0520
--------------------------------------------------------------------------------


  CIF file written as perov.cif                                               


  Job Finished at 09:35.58  6th April      2017                               

