********************************************************************************
*                       GENERAL UTILITY LATTICE PROGRAM                        *
*                                 Julian Gale                                  *
*                      Nanochemistry Research Institute                        *
*                           Department of Chemistry                            *
*                    Curtin University, Western Australia                      *
********************************************************************************
* Version = 4.3.2 * Last modified =  3rd March 2015                            *
********************************************************************************
*  optimise     - perform optimisation run                                     *
*  cell_only    - only optimise unit cell                                      *
*  property     - calculate properties for final geometry                      *
********************************************************************************

  Job Started  at 09:36.01  6th April      2017                               

  Number of CPUs =     1


  Total number of configurations input =   1

********************************************************************************
*  Input for Configuration =   1                                               *
********************************************************************************

  Formula = K4Ca4F12                                                    

  Number of irreducible atoms/shells =       6


  Total number atoms/shells =      32

  Dimensionality = 3               :  Bulk   


  Symmetry :

  Crystal family                   :  Orthorhombic
  Crystal class  (Groth - 1921)    :  Orthorhombic Bipyramidal             

  Space group (centrosymmetric)    :  P N M A         

  Patterson group                  :  P m m m  

  Cartesian lattice vectors (Angstroms) :

        6.223500    0.000000    0.000000
        0.000000    8.710300    0.000000
        0.000000    0.000000    6.118000

  Cell parameters (Angstroms/Degrees):

  a =       6.2235    alpha =  90.0000
  b =       8.7103    beta  =  90.0000
  c =       6.1180    gamma =  90.0000

  Initial cell volume =         331.647921 Angs**3

  Temperature of configuration =  0.000     K 

  Pressure of configuration =         0.000 GPa 

  Fractional coordinates of asymmetric unit :

--------------------------------------------------------------------------------
   No.  Atomic       x           y          z         Charge      Occupancy
        Label      (Frac)      (Frac)     (Frac)        (e)         (Frac)  
--------------------------------------------------------------------------------
      1 K     c    0.042000    0.250000    0.490600     1.10000    1.000000    
      2 Ca    c    0.000000    0.000000    0.000000     2.40000    1.000000    
      3 F     c    0.471500    0.250000    0.581200     0.37800    1.000000    
      4 F     c    0.291600    0.040400    0.206800     0.37800    1.000000    
      5 F     s    0.471500    0.250000    0.581200    -1.54467    1.000000    
      6 F     s    0.291600    0.040400    0.206800    -1.54467    1.000000    
--------------------------------------------------------------------------------



********************************************************************************
*  General input information                                                   *
********************************************************************************

  Species output for all configurations : 

--------------------------------------------------------------------------------
  Species    Type    Atomic    Atomic    Charge       Radii (Angs)     Library
                     Number     Mass       (e)     Cova   Ionic  VDW   Symbol
--------------------------------------------------------------------------------
    K        Core       19      39.10   1.100000   1.330  0.000  2.800          
    Ca       Core       20      40.08   2.400000   0.990  0.000  2.750          
    F        Core        9      19.00   0.378000   0.710  0.000  1.300          
    F        Shell       9       0.00  -1.544667   0.710  0.000  1.300          
--------------------------------------------------------------------------------


  Lattice summation method               =    Ewald          (3-D)
                                         =    Parry          (2-D)
                                         =    Saunders et al (1-D)
  Accuracy factor for lattice sums       =   12.000


  Time limit = Infinity

  Maximum range for interatomic potentials =    100000.000000 Angstroms

  General interatomic potentials :

--------------------------------------------------------------------------------
Atom  Types   Potential         A         B         C         D     Cutoffs(Ang)
  1     2                                                            Min    Max 
--------------------------------------------------------------------------------
K    c K    c Buckingham    0.219E+04 0.192      0.00      0.00     0.000 10.000
Ca   c F    s Buckingham    0.148E+04 0.266      0.00      0.00     0.000 10.000
F    s F    s Buckingham     912.     0.271      13.8      0.00     0.000 10.000
K    c F    s Buckingham    0.352E+04 0.267      0.00      0.00     0.000 10.000
F    c F    s Spring (c-s)   30.6      0.00      0.00      0.00     0.000  0.800
--------------------------------------------------------------------------------

********************************************************************************
*  Output for configuration   1                                                *
********************************************************************************


  Components of energy : 

--------------------------------------------------------------------------------
  Interatomic potentials     =          10.66009013 eV
  Monopole - monopole (real) =        -100.47194172 eV
  Monopole - monopole (recip)=        -122.69893180 eV
  Monopole - monopole (total)=        -223.17087352 eV
--------------------------------------------------------------------------------
  Total lattice energy       =        -212.51078339 eV
--------------------------------------------------------------------------------
  Total lattice energy       =          -20504.0421 kJ/(mole unit cells)
--------------------------------------------------------------------------------


  Number of variables =        3

  Maximum number of calculations  =          1000
  Maximum Hessian update interval =            10
  Maximum step size               =   1.000000000
  Maximum parameter tolerance     =   0.000010000
  Maximum function  tolerance     =   0.000010000
  Maximum gradient  tolerance     =   0.001000000
  Maximum gradient  component     =   0.010000000

  Symmetry constrained optimisation

  Symmetry used for second derivatives

  Cell parameters to be optimised using strains

  Newton-Raphson optimiser to be used

  BFGS hessian update to be used

  Start of bulk optimisation :

  Cycle:      0 Energy:      -212.510783  Gnorm:     23.800700  CPU:    0.007
  ** Hessian calculated **
  Cycle:      1 Energy:      -220.887138  Gnorm:      2.339766  CPU:    0.016
  Cycle:      2 Energy:      -220.942206  Gnorm:      1.361476  CPU:    0.022
  Cycle:      3 Energy:      -220.959587  Gnorm:      0.038827  CPU:    0.029
  Cycle:      4 Energy:      -220.959587  Gnorm:      0.038827  CPU:    0.035
  ** Hessian calculated **
  Cycle:      5 Energy:      -220.959603  Gnorm:      0.027948  CPU:    0.045
  Cycle:      6 Energy:      -220.959603  Gnorm:      0.027948  CPU:    0.052
  ** Hessian calculated **
  Cycle:      7 Energy:      -220.959603  Gnorm:      0.027948  CPU:    0.063
  ** Hessian calculated **


  **** Conditions for a minimum have not been satisfied. However ****
  **** no lower point can be found - treat results with caution  ****
  **** unless gradient norm is small (less than 0.1)             ****


  Final energy =    -220.95960300 eV
  Final Gnorm  =       0.02794833

  Components of energy : 

--------------------------------------------------------------------------------
  Interatomic potentials     =          30.13527577 eV
  Monopole - monopole (real) =        -113.03869745 eV
  Monopole - monopole (recip)=        -138.05618131 eV
  Monopole - monopole (total)=        -251.09487876 eV
--------------------------------------------------------------------------------
  Total lattice energy       =        -220.95960300 eV
--------------------------------------------------------------------------------
  Total lattice energy       =          -21319.2240 kJ/(mole unit cells)
--------------------------------------------------------------------------------

  Final asymmetric unit coordinates :

--------------------------------------------------------------------------------
   No.  Atomic        x           y           z         Radius
        Label       (Frac)      (Frac)      (Frac)       (Angs) 
--------------------------------------------------------------------------------
     1  K     c     0.042000    0.250000    0.490600    0.000000
     2  Ca    c     0.000000    0.000000    0.000000    0.000000
     3  F     c     0.471500    0.250000    0.581200    0.000000
     4  F     c     0.291600    0.040400    0.206800    0.000000
     5  F     s     0.471500    0.250000    0.581200    0.000000
     6  F     s     0.291600    0.040400    0.206800    0.000000
--------------------------------------------------------------------------------

  Final Cartesian lattice vectors (Angstroms) :

        5.550025    0.000000    0.000000
        0.000000    7.699977    0.000000
        0.000000    0.000000    5.448093


  Final cell parameters and derivatives :

--------------------------------------------------------------------------------
       a            5.550025 Angstrom     dE/de1(xx)    -0.057520 eV/strain
       b            7.699977 Angstrom     dE/de2(yy)     0.035051 eV/strain
       c            5.448093 Angstrom     dE/de3(zz)    -0.049929 eV/strain
       alpha       90.000000 Degrees      dE/de4(yz)     0.000000 eV/strain
       beta        90.000000 Degrees      dE/de5(xz)     0.000000 eV/strain
       gamma       90.000000 Degrees      dE/de6(xy)     0.000000 eV/strain
--------------------------------------------------------------------------------

  Primitive cell volume =           232.824604 Angs**3

  Density of cell =      3.885084 g/cm**3

  Non-primitive cell volume =           232.824604 Angs**3


  Final internal derivatives :

--------------------------------------------------------------------------------
   No.  Atomic          a             b             c           Radius
        Label          (eV)          (eV)          (eV)        (eV/Angs)
--------------------------------------------------------------------------------
      1 K     c       0.000000      0.000000      0.000000      0.000000
      2 Ca    c       0.000000      0.000000      0.000000      0.000000
      3 F     c       0.000000      0.000000      0.000000      0.000000
      4 F     c       0.000000      0.000000      0.000000      0.000000
      5 F     s       0.000000      0.000000      0.000000      0.000000
      6 F     s       0.000000      0.000000      0.000000      0.000000
--------------------------------------------------------------------------------
  Maximum abs         0.000000      0.000000      0.000000      0.000000
--------------------------------------------------------------------------------


  Born effective charge tensors : 

-------------------------------------------------------------------------------
  Atom             x           y             z
-------------------------------------------------------------------------------
   1 K     x       0.8899      0.0000     -0.0642
           y       0.0000      0.9499      0.0000
           z      -0.0616      0.0000      0.8779
-------------------------------------------------------------------------------
   2 Ca    x       2.2197      0.0141     -0.0538
           y      -0.0099      2.1730     -0.0427
           z       0.0228      0.0526      2.2211
-------------------------------------------------------------------------------
   3 F     x      -0.9061      0.0000      0.0313
           y       0.0000     -1.2723      0.0000
           z       0.0579      0.0000     -0.8799
-------------------------------------------------------------------------------
   4 F     x      -1.1017      0.0280     -0.1905
           y       0.0345     -0.9253     -0.0219
           z      -0.1873     -0.0204     -1.1095
-------------------------------------------------------------------------------




  Elastic Constant Matrix: (Units=GPa)

-------------------------------------------------------------------------------
  Indices      1         2         3         4         5         6    
-------------------------------------------------------------------------------
       1    185.2952   85.5538   74.8905    0.0000    0.0000    0.0000
       2     85.5538  182.1732   96.3865    0.0000    0.0000    0.0000
       3     74.8905   96.3865  198.3635    0.0000    0.0000    0.0000
       4      0.0000    0.0000    0.0000   69.0596    0.0000    0.0000
       5      0.0000    0.0000    0.0000    0.0000   39.8757    0.0000
       6      0.0000    0.0000    0.0000    0.0000    0.0000   79.4459
-------------------------------------------------------------------------------


  Elastic Compliance Matrix: (Units=1/GPa)

-------------------------------------------------------------------------------
  Indices      1         2         3         4         5         6    
-------------------------------------------------------------------------------
       1    0.007186 -0.002610 -0.001445  0.000000  0.000000  0.000000
       2   -0.002610  0.008337 -0.003066  0.000000  0.000000  0.000000
       3   -0.001445 -0.003066  0.007076  0.000000  0.000000  0.000000
       4    0.000000  0.000000  0.000000  0.014480  0.000000  0.000000
       5    0.000000  0.000000  0.000000  0.000000  0.025078  0.000000
       6    0.000000  0.000000  0.000000  0.000000  0.000000  0.012587
-------------------------------------------------------------------------------

  Mechanical properties :

-------------------------------------------------------------------------------
  Convention :                    Reuss         Voigt         Hill
-------------------------------------------------------------------------------
  Bulk  Modulus (GPa)     =     119.64253     119.94373     119.79313
  Shear Modulus (GPa)     =      54.48296      58.27630      56.37963
-------------------------------------------------------------------------------
  Velocity S-wave (km/s)  =       3.74481       3.87298       3.80944
  Velocity P-wave (km/s)  =       7.03516       7.13252       7.08401
-------------------------------------------------------------------------------
  Compressibility (1/GPa) =    0.00835823
-------------------------------------------------------------------------------
  Stress axis :                     x             y             z
-------------------------------------------------------------------------------
  Youngs Moduli (GPa)     =     139.16121     119.94474     141.31846
-------------------------------------------------------------------------------
  Poissons Ratio (x)      =                     0.31310       0.20414
  Poissons Ratio (y)      =       0.36327                     0.43322
  Poissons Ratio (z)      =       0.20103       0.36770
-------------------------------------------------------------------------------


  Piezoelectric Strain Matrix: (Units=C/m**2)

-------------------------------------------------------------------------------
  Indices      1         2         3         4         5         6    
-------------------------------------------------------------------------------
       x     0.00000   0.00000   0.00000   0.00000   0.00000   0.00000
       y     0.00000   0.00000   0.00000   0.00000   0.00000   0.00000
       z     0.00000   0.00000   0.00000   0.00000   0.00000   0.00000
-------------------------------------------------------------------------------


  Piezoelectric Stress Matrix: (Units=10**-11 C/N)

-------------------------------------------------------------------------------
  Indices      1         2         3         4         5         6    
-------------------------------------------------------------------------------
       x     0.00000   0.00000   0.00000   0.00000   0.00000   0.00000
       y     0.00000   0.00000   0.00000   0.00000   0.00000   0.00000
       z     0.00000   0.00000   0.00000   0.00000   0.00000   0.00000
-------------------------------------------------------------------------------


  Static dielectric constant tensor : 

-------------------------------------------------------------------------------
              x         y         z
-------------------------------------------------------------------------------
       x     4.79435   0.00000   0.00000
       y     0.00000   4.59449   0.00000
       z     0.00000   0.00000   4.56822
--------------------------------------------------------------------------------

  High frequency dielectric constant tensor : 

-------------------------------------------------------------------------------
              x         y         z
-------------------------------------------------------------------------------
       x     1.71022   0.00000   0.00000
       y     0.00000   1.71293   0.00000
       z     0.00000   0.00000   1.70765
-------------------------------------------------------------------------------

  Static refractive indices : 

-------------------------------------------------------------------------------
    1 =    2.13734      2 =    2.14348      3 =    2.18960
-------------------------------------------------------------------------------

  High frequency refractive indices : 

-------------------------------------------------------------------------------
    1 =    1.30677      2 =    1.30775      3 =    1.30879
-------------------------------------------------------------------------------


  Time to end of optimisation =       0.0909 seconds


  Peak dynamic memory used =       0.73 MB 


  Timing analysis for GULP :

--------------------------------------------------------------------------------
  Task / Subroutine                                          Time (Seconds)
--------------------------------------------------------------------------------
  Calculation of reciprocal space energy and derivatives          0.0029
  Calculation of reciprocal space energy using symmetry           0.0096
  Calculation of real space energy and derivatives                0.0130
  Calculation of real space energy using symmetry                 0.0605
  Symmetry generation of equivalent positions                     0.0004
--------------------------------------------------------------------------------
  Total CPU time                                                  0.0910
--------------------------------------------------------------------------------


  CIF file written as perov.cif                                               


  Job Finished at 09:36.01  6th April      2017                               

