********************************************************************************
*                       GENERAL UTILITY LATTICE PROGRAM                        *
*                                 Julian Gale                                  *
*                      Nanochemistry Research Institute                        *
*                           Department of Chemistry                            *
*                    Curtin University, Western Australia                      *
********************************************************************************
* Version = 4.3.2 * Last modified =  3rd March 2015                            *
********************************************************************************
*  optimise     - perform optimisation run                                     *
*  cell_only    - only optimise unit cell                                      *
*  property     - calculate properties for final geometry                      *
********************************************************************************

  Job Started  at 09:36.03  6th April      2017                               

  Number of CPUs =     1


  Total number of configurations input =   1

********************************************************************************
*  Input for Configuration =   1                                               *
********************************************************************************

  Formula = K4Ca4F12                                                    

  Number of irreducible atoms/shells =       6


  Total number atoms/shells =      32

  Dimensionality = 3               :  Bulk   


  Symmetry :

  Crystal family                   :  Orthorhombic
  Crystal class  (Groth - 1921)    :  Orthorhombic Bipyramidal             

  Space group (centrosymmetric)    :  P N M A         

  Patterson group                  :  P m m m  

  Cartesian lattice vectors (Angstroms) :

        6.223500    0.000000    0.000000
        0.000000    8.710300    0.000000
        0.000000    0.000000    6.118000

  Cell parameters (Angstroms/Degrees):

  a =       6.2235    alpha =  90.0000
  b =       8.7103    beta  =  90.0000
  c =       6.1180    gamma =  90.0000

  Initial cell volume =         331.647921 Angs**3

  Temperature of configuration =  0.000     K 

  Pressure of configuration =         0.000 GPa 

  Fractional coordinates of asymmetric unit :

--------------------------------------------------------------------------------
   No.  Atomic       x           y          z         Charge      Occupancy
        Label      (Frac)      (Frac)     (Frac)        (e)         (Frac)  
--------------------------------------------------------------------------------
      1 K     c    0.042000    0.250000    0.490600     1.40000    1.000000    
      2 Ca    c    0.000000    0.000000    0.000000     2.30000    1.000000    
      3 F     c    0.471500    0.250000    0.581200     0.37800    1.000000    
      4 F     c    0.291600    0.040400    0.206800     0.37800    1.000000    
      5 F     s    0.471500    0.250000    0.581200    -1.61133    1.000000    
      6 F     s    0.291600    0.040400    0.206800    -1.61133    1.000000    
--------------------------------------------------------------------------------



********************************************************************************
*  General input information                                                   *
********************************************************************************

  Species output for all configurations : 

--------------------------------------------------------------------------------
  Species    Type    Atomic    Atomic    Charge       Radii (Angs)     Library
                     Number     Mass       (e)     Cova   Ionic  VDW   Symbol
--------------------------------------------------------------------------------
    K        Core       19      39.10   1.400000   1.330  0.000  2.800          
    Ca       Core       20      40.08   2.300000   0.990  0.000  2.750          
    F        Core        9      19.00   0.378000   0.710  0.000  1.300          
    F        Shell       9       0.00  -1.611333   0.710  0.000  1.300          
--------------------------------------------------------------------------------


  Lattice summation method               =    Ewald          (3-D)
                                         =    Parry          (2-D)
                                         =    Saunders et al (1-D)
  Accuracy factor for lattice sums       =   12.000


  Time limit = Infinity

  Maximum range for interatomic potentials =    100000.000000 Angstroms

  General interatomic potentials :

--------------------------------------------------------------------------------
Atom  Types   Potential         A         B         C         D     Cutoffs(Ang)
  1     2                                                            Min    Max 
--------------------------------------------------------------------------------
K    c K    c Buckingham    0.219E+04 0.192      0.00      0.00     0.000 10.000
Ca   c F    s Buckingham    0.148E+04 0.266      0.00      0.00     0.000 10.000
F    s F    s Buckingham     912.     0.271      13.8      0.00     0.000 10.000
K    c F    s Buckingham    0.352E+04 0.267      0.00      0.00     0.000 10.000
F    c F    s Spring (c-s)   33.3      0.00      0.00      0.00     0.000  0.800
--------------------------------------------------------------------------------

********************************************************************************
*  Output for configuration   1                                                *
********************************************************************************


  Components of energy : 

--------------------------------------------------------------------------------
  Interatomic potentials     =          10.66009013 eV
  Monopole - monopole (real) =        -106.89386799 eV
  Monopole - monopole (recip)=        -131.16635064 eV
  Monopole - monopole (total)=        -238.06021864 eV
--------------------------------------------------------------------------------
  Total lattice energy       =        -227.40012850 eV
--------------------------------------------------------------------------------
  Total lattice energy       =          -21940.6363 kJ/(mole unit cells)
--------------------------------------------------------------------------------


  Number of variables =        3

  Maximum number of calculations  =          1000
  Maximum Hessian update interval =            10
  Maximum step size               =   1.000000000
  Maximum parameter tolerance     =   0.000010000
  Maximum function  tolerance     =   0.000010000
  Maximum gradient  tolerance     =   0.001000000
  Maximum gradient  component     =   0.010000000

  Symmetry constrained optimisation

  Symmetry used for second derivatives

  Cell parameters to be optimised using strains

  Newton-Raphson optimiser to be used

  BFGS hessian update to be used

  Start of bulk optimisation :

  Cycle:      0 Energy:      -227.400129  Gnorm:     26.666812  CPU:    0.008
  ** Hessian calculated **
  Cycle:      1 Energy:      -237.658772  Gnorm:      3.451643  CPU:    0.020
  ** Hessian calculated **
  Cycle:      2 Energy:      -237.798063  Gnorm:      0.163918  CPU:    0.030
  Cycle:      3 Energy:      -237.798226  Gnorm:      0.013084  CPU:    0.035


  **** Optimisation achieved ****


  Final energy =    -237.79822725 eV
  Final Gnorm  =       0.00021148

  Components of energy : 

--------------------------------------------------------------------------------
  Interatomic potentials     =          32.76864433 eV
  Monopole - monopole (real) =        -121.48486074 eV
  Monopole - monopole (recip)=        -149.08201084 eV
  Monopole - monopole (total)=        -270.56687159 eV
--------------------------------------------------------------------------------
  Total lattice energy       =        -237.79822725 eV
--------------------------------------------------------------------------------
  Total lattice energy       =          -22943.8939 kJ/(mole unit cells)
--------------------------------------------------------------------------------

  Final asymmetric unit coordinates :

--------------------------------------------------------------------------------
   No.  Atomic        x           y           z         Radius
        Label       (Frac)      (Frac)      (Frac)       (Angs) 
--------------------------------------------------------------------------------
     1  K     c     0.042000    0.250000    0.490600    0.000000
     2  Ca    c     0.000000    0.000000    0.000000    0.000000
     3  F     c     0.471500    0.250000    0.581200    0.000000
     4  F     c     0.291600    0.040400    0.206800    0.000000
     5  F     s     0.471500    0.250000    0.581200    0.000000
     6  F     s     0.291600    0.040400    0.206800    0.000000
--------------------------------------------------------------------------------

  Final Cartesian lattice vectors (Angstroms) :

        5.496552    0.000000    0.000000
        0.000000    7.620722    0.000000
        0.000000    0.000000    5.392389


  Final cell parameters and derivatives :

--------------------------------------------------------------------------------
       a            5.496552 Angstrom     dE/de1(xx)    -0.000208 eV/strain
       b            7.620722 Angstrom     dE/de2(yy)    -0.000599 eV/strain
       c            5.392389 Angstrom     dE/de3(zz)     0.000022 eV/strain
       alpha       90.000000 Degrees      dE/de4(yz)     0.000000 eV/strain
       beta        90.000000 Degrees      dE/de5(xz)     0.000000 eV/strain
       gamma       90.000000 Degrees      dE/de6(xy)     0.000000 eV/strain
--------------------------------------------------------------------------------

  Primitive cell volume =           225.874714 Angs**3

  Density of cell =      4.004624 g/cm**3

  Non-primitive cell volume =           225.874714 Angs**3


  Final internal derivatives :

--------------------------------------------------------------------------------
   No.  Atomic          a             b             c           Radius
        Label          (eV)          (eV)          (eV)        (eV/Angs)
--------------------------------------------------------------------------------
      1 K     c       0.000000      0.000000      0.000000      0.000000
      2 Ca    c       0.000000      0.000000      0.000000      0.000000
      3 F     c       0.000000      0.000000      0.000000      0.000000
      4 F     c       0.000000      0.000000      0.000000      0.000000
      5 F     s       0.000000      0.000000      0.000000      0.000000
      6 F     s       0.000000      0.000000      0.000000      0.000000
--------------------------------------------------------------------------------
  Maximum abs         0.000000      0.000000      0.000000      0.000000
--------------------------------------------------------------------------------


  Born effective charge tensors : 

-------------------------------------------------------------------------------
  Atom             x           y             z
-------------------------------------------------------------------------------
   1 K     x       1.2367      0.0000     -0.0550
           y       0.0000      1.2977      0.0000
           z      -0.0591      0.0000      1.2232
-------------------------------------------------------------------------------
   2 Ca    x       2.0539      0.0149     -0.0372
           y      -0.0024      2.0070     -0.0265
           z       0.0131      0.0378      2.0545
-------------------------------------------------------------------------------
   3 F     x      -1.0016      0.0000      0.0263
           y       0.0000     -1.2585      0.0000
           z       0.0483      0.0000     -0.9749
-------------------------------------------------------------------------------
   4 F     x      -1.1445      0.0273     -0.1343
           y       0.0357     -1.0231     -0.0291
           z      -0.1316     -0.0291     -1.1514
-------------------------------------------------------------------------------




  Elastic Constant Matrix: (Units=GPa)

-------------------------------------------------------------------------------
  Indices      1         2         3         4         5         6    
-------------------------------------------------------------------------------
       1    206.4034   92.7758   80.2795    0.0000    0.0000    0.0000
       2     92.7758  205.6020  101.3806    0.0000    0.0000    0.0000
       3     80.2795  101.3806  224.5936    0.0000    0.0000    0.0000
       4      0.0000    0.0000    0.0000   78.1182    0.0000    0.0000
       5      0.0000    0.0000    0.0000    0.0000   48.3706    0.0000
       6      0.0000    0.0000    0.0000    0.0000    0.0000   88.3288
-------------------------------------------------------------------------------


  Elastic Compliance Matrix: (Units=1/GPa)

-------------------------------------------------------------------------------
  Indices      1         2         3         4         5         6    
-------------------------------------------------------------------------------
       1    0.006341 -0.002243 -0.001254  0.000000  0.000000  0.000000
       2   -0.002243  0.007050 -0.002380  0.000000  0.000000  0.000000
       3   -0.001254 -0.002380  0.005975  0.000000  0.000000  0.000000
       4    0.000000  0.000000  0.000000  0.012801  0.000000  0.000000
       5    0.000000  0.000000  0.000000  0.000000  0.020674  0.000000
       6    0.000000  0.000000  0.000000  0.000000  0.000000  0.011321
-------------------------------------------------------------------------------

  Mechanical properties :

-------------------------------------------------------------------------------
  Convention :                    Reuss         Voigt         Hill
-------------------------------------------------------------------------------
  Bulk  Modulus (GPa)     =     131.39031     131.71898     131.55465
  Shear Modulus (GPa)     =      63.73195      67.10770      65.41983
-------------------------------------------------------------------------------
  Velocity S-wave (km/s)  =       3.98931       4.09360       4.04179
  Velocity P-wave (km/s)  =       7.35045       7.43203       7.39135
-------------------------------------------------------------------------------
  Compressibility (1/GPa) =    0.00761091
-------------------------------------------------------------------------------
  Stress axis :                     x             y             z
-------------------------------------------------------------------------------
  Youngs Moduli (GPa)     =     157.70953     141.85159     167.35620
-------------------------------------------------------------------------------
  Poissons Ratio (x)      =                     0.31815       0.20987
  Poissons Ratio (y)      =       0.35372                     0.39839
  Poissons Ratio (z)      =       0.19778       0.33767
-------------------------------------------------------------------------------


  Piezoelectric Strain Matrix: (Units=C/m**2)

-------------------------------------------------------------------------------
  Indices      1         2         3         4         5         6    
-------------------------------------------------------------------------------
       x     0.00000   0.00000   0.00000   0.00000   0.00000   0.00000
       y     0.00000   0.00000   0.00000   0.00000   0.00000   0.00000
       z     0.00000   0.00000   0.00000   0.00000   0.00000   0.00000
-------------------------------------------------------------------------------


  Piezoelectric Stress Matrix: (Units=10**-11 C/N)

-------------------------------------------------------------------------------
  Indices      1         2         3         4         5         6    
-------------------------------------------------------------------------------
       x     0.00000   0.00000   0.00000   0.00000   0.00000   0.00000
       y     0.00000   0.00000   0.00000   0.00000   0.00000   0.00000
       z     0.00000   0.00000   0.00000   0.00000   0.00000   0.00000
-------------------------------------------------------------------------------


  Static dielectric constant tensor : 

-------------------------------------------------------------------------------
              x         y         z
-------------------------------------------------------------------------------
       x     4.82122   0.00000   0.00000
       y     0.00000   4.96834   0.00000
       z     0.00000   0.00000   4.58727
--------------------------------------------------------------------------------

  High frequency dielectric constant tensor : 

-------------------------------------------------------------------------------
              x         y         z
-------------------------------------------------------------------------------
       x     1.73058   0.00000   0.00000
       y     0.00000   1.73345   0.00000
       z     0.00000   0.00000   1.72769
-------------------------------------------------------------------------------

  Static refractive indices : 

-------------------------------------------------------------------------------
    1 =    2.14179      2 =    2.19573      3 =    2.22898
-------------------------------------------------------------------------------

  High frequency refractive indices : 

-------------------------------------------------------------------------------
    1 =    1.31442      2 =    1.31552      3 =    1.31661
-------------------------------------------------------------------------------


  Time to end of optimisation =       0.0617 seconds


  Peak dynamic memory used =       0.73 MB 


  Timing analysis for GULP :

--------------------------------------------------------------------------------
  Task / Subroutine                                          Time (Seconds)
--------------------------------------------------------------------------------
  Calculation of reciprocal space energy and derivatives          0.0027
  Calculation of reciprocal space energy using symmetry           0.0050
  Calculation of real space energy and derivatives                0.0164
  Calculation of real space energy using symmetry                 0.0329
  Symmetry generation of equivalent positions                     0.0004
--------------------------------------------------------------------------------
  Total CPU time                                                  0.0617
--------------------------------------------------------------------------------


  CIF file written as perov.cif                                               


  Job Finished at 09:36.03  6th April      2017                               

