********************************************************************************
*                       GENERAL UTILITY LATTICE PROGRAM                        *
*                                 Julian Gale                                  *
*                      Nanochemistry Research Institute                        *
*                           Department of Chemistry                            *
*                    Curtin University, Western Australia                      *
********************************************************************************
* Version = 4.3.2 * Last modified =  3rd March 2015                            *
********************************************************************************
*  optimise     - perform optimisation run                                     *
*  cell_only    - only optimise unit cell                                      *
*  property     - calculate properties for final geometry                      *
********************************************************************************

  Job Started  at 09:35.58  6th April      2017                               

  Number of CPUs =     1


  Total number of configurations input =   1

********************************************************************************
*  Input for Configuration =   1                                               *
********************************************************************************

  Formula = K4Ca4F12                                                    

  Number of irreducible atoms/shells =       6


  Total number atoms/shells =      32

  Dimensionality = 3               :  Bulk   


  Symmetry :

  Crystal family                   :  Orthorhombic
  Crystal class  (Groth - 1921)    :  Orthorhombic Bipyramidal             

  Space group (centrosymmetric)    :  P N M A         

  Patterson group                  :  P m m m  

  Cartesian lattice vectors (Angstroms) :

        6.223500    0.000000    0.000000
        0.000000    8.710300    0.000000
        0.000000    0.000000    6.118000

  Cell parameters (Angstroms/Degrees):

  a =       6.2235    alpha =  90.0000
  b =       8.7103    beta  =  90.0000
  c =       6.1180    gamma =  90.0000

  Initial cell volume =         331.647921 Angs**3

  Temperature of configuration =  0.000     K 

  Pressure of configuration =         0.000 GPa 

  Fractional coordinates of asymmetric unit :

--------------------------------------------------------------------------------
   No.  Atomic       x           y          z         Charge      Occupancy
        Label      (Frac)      (Frac)     (Frac)        (e)         (Frac)  
--------------------------------------------------------------------------------
      1 K     c    0.042000    0.250000    0.490600     0.80000    1.000000    
      2 Ca    c    0.000000    0.000000    0.000000     1.60000    1.000000    
      3 F     c    0.471500    0.250000    0.581200     0.37800    1.000000    
      4 F     c    0.291600    0.040400    0.206800     0.37800    1.000000    
      5 F     s    0.471500    0.250000    0.581200    -1.17800    1.000000    
      6 F     s    0.291600    0.040400    0.206800    -1.17800    1.000000    
--------------------------------------------------------------------------------



********************************************************************************
*  General input information                                                   *
********************************************************************************

  Species output for all configurations : 

--------------------------------------------------------------------------------
  Species    Type    Atomic    Atomic    Charge       Radii (Angs)     Library
                     Number     Mass       (e)     Cova   Ionic  VDW   Symbol
--------------------------------------------------------------------------------
    K        Core       19      39.10   0.800000   1.330  0.000  2.800          
    Ca       Core       20      40.08   1.600000   0.990  0.000  2.750          
    F        Core        9      19.00   0.378000   0.710  0.000  1.300          
    F        Shell       9       0.00  -1.178000   0.710  0.000  1.300          
--------------------------------------------------------------------------------


  Lattice summation method               =    Ewald          (3-D)
                                         =    Parry          (2-D)
                                         =    Saunders et al (1-D)
  Accuracy factor for lattice sums       =   12.000


  Time limit = Infinity

  Maximum range for interatomic potentials =    100000.000000 Angstroms

  General interatomic potentials :

--------------------------------------------------------------------------------
Atom  Types   Potential         A         B         C         D     Cutoffs(Ang)
  1     2                                                            Min    Max 
--------------------------------------------------------------------------------
K    c K    c Buckingham    0.219E+04 0.192      0.00      0.00     0.000 10.000
Ca   c F    s Buckingham    0.148E+04 0.266      0.00      0.00     0.000 10.000
F    s F    s Buckingham     912.     0.271      13.8      0.00     0.000 10.000
K    c F    s Buckingham    0.352E+04 0.267      0.00      0.00     0.000 10.000
F    c F    s Spring (c-s)   17.8      0.00      0.00      0.00     0.000  0.800
--------------------------------------------------------------------------------

********************************************************************************
*  Output for configuration   1                                                *
********************************************************************************


  Components of energy : 

--------------------------------------------------------------------------------
  Interatomic potentials     =          10.66009013 eV
  Monopole - monopole (real) =         -46.54198785 eV
  Monopole - monopole (recip)=         -56.84189663 eV
  Monopole - monopole (total)=        -103.38388449 eV
--------------------------------------------------------------------------------
  Total lattice energy       =         -92.72379435 eV
--------------------------------------------------------------------------------
  Total lattice energy       =           -8946.4287 kJ/(mole unit cells)
--------------------------------------------------------------------------------


  Number of variables =        3

  Maximum number of calculations  =          1000
  Maximum Hessian update interval =            10
  Maximum step size               =   1.000000000
  Maximum parameter tolerance     =   0.000010000
  Maximum function  tolerance     =   0.000010000
  Maximum gradient  tolerance     =   0.001000000
  Maximum gradient  component     =   0.010000000

  Symmetry constrained optimisation

  Symmetry used for second derivatives

  Cell parameters to be optimised using strains

  Newton-Raphson optimiser to be used

  BFGS hessian update to be used

  Start of bulk optimisation :

  Cycle:      0 Energy:       -92.723794  Gnorm:      0.769965  CPU:    0.007
  ** Hessian calculated **
  Cycle:      1 Energy:       -92.736344  Gnorm:      0.018397  CPU:    0.014


  **** Optimisation achieved ****


  Final energy =     -92.73635056 eV
  Final Gnorm  =       0.00052434

  Components of energy : 

--------------------------------------------------------------------------------
  Interatomic potentials     =          11.19223243 eV
  Monopole - monopole (real) =         -46.78518303 eV
  Monopole - monopole (recip)=         -57.14339996 eV
  Monopole - monopole (total)=        -103.92858298 eV
--------------------------------------------------------------------------------
  Total lattice energy       =         -92.73635056 eV
--------------------------------------------------------------------------------
  Total lattice energy       =           -8947.6402 kJ/(mole unit cells)
--------------------------------------------------------------------------------

  Final asymmetric unit coordinates :

--------------------------------------------------------------------------------
   No.  Atomic        x           y           z         Radius
        Label       (Frac)      (Frac)      (Frac)       (Angs) 
--------------------------------------------------------------------------------
     1  K     c     0.042000    0.250000    0.490600    0.000000
     2  Ca    c     0.000000    0.000000    0.000000    0.000000
     3  F     c     0.471500    0.250000    0.581200    0.000000
     4  F     c     0.291600    0.040400    0.206800    0.000000
     5  F     s     0.471500    0.250000    0.581200    0.000000
     6  F     s     0.291600    0.040400    0.206800    0.000000
--------------------------------------------------------------------------------

  Final Cartesian lattice vectors (Angstroms) :

        6.209072    0.000000    0.000000
        0.000000    8.620280    0.000000
        0.000000    0.000000    6.098657


  Final cell parameters and derivatives :

--------------------------------------------------------------------------------
       a            6.209072 Angstrom     dE/de1(xx)    -0.001015 eV/strain
       b            8.620280 Angstrom     dE/de2(yy)    -0.000470 eV/strain
       c            6.098657 Angstrom     dE/de3(zz)    -0.001106 eV/strain
       alpha       90.000000 Degrees      dE/de4(yz)     0.000000 eV/strain
       beta        90.000000 Degrees      dE/de5(xz)     0.000000 eV/strain
       gamma       90.000000 Degrees      dE/de6(xy)     0.000000 eV/strain
--------------------------------------------------------------------------------

  Primitive cell volume =           326.424136 Angs**3

  Density of cell =      2.771067 g/cm**3

  Non-primitive cell volume =           326.424136 Angs**3


  Final internal derivatives :

--------------------------------------------------------------------------------
   No.  Atomic          a             b             c           Radius
        Label          (eV)          (eV)          (eV)        (eV/Angs)
--------------------------------------------------------------------------------
      1 K     c       0.000000      0.000000      0.000000      0.000000
      2 Ca    c       0.000000      0.000000      0.000000      0.000000
      3 F     c       0.000000      0.000000      0.000000      0.000000
      4 F     c       0.000000      0.000000      0.000000      0.000000
      5 F     s       0.000000      0.000000      0.000000      0.000000
      6 F     s       0.000000      0.000000      0.000000      0.000000
--------------------------------------------------------------------------------
  Maximum abs         0.000000      0.000000      0.000000      0.000000
--------------------------------------------------------------------------------


  Born effective charge tensors : 

-------------------------------------------------------------------------------
  Atom             x           y             z
-------------------------------------------------------------------------------
   1 K     x       0.7202      0.0000     -0.0302
           y       0.0000      0.7517      0.0000
           z      -0.0309      0.0000      0.7122
-------------------------------------------------------------------------------
   2 Ca    x       1.4148      0.0078     -0.0131
           y       0.0014      1.3891     -0.0050
           z       0.0021      0.0135      1.4153
-------------------------------------------------------------------------------
   3 F     x      -0.6697      0.0000      0.0170
           y       0.0000     -0.7783      0.0000
           z       0.0242      0.0000     -0.6513
-------------------------------------------------------------------------------
   4 F     x      -0.7327      0.0171     -0.0596
           y       0.0206     -0.6812     -0.0174
           z      -0.0584     -0.0175     -0.7381
-------------------------------------------------------------------------------




  Elastic Constant Matrix: (Units=GPa)

-------------------------------------------------------------------------------
  Indices      1         2         3         4         5         6    
-------------------------------------------------------------------------------
       1     61.9294   26.6155   30.8576    0.0000    0.0000    0.0000
       2     26.6155   67.4474   29.7301    0.0000    0.0000    0.0000
       3     30.8576   29.7301   63.2284    0.0000    0.0000    0.0000
       4      0.0000    0.0000    0.0000   18.9312    0.0000    0.0000
       5      0.0000    0.0000    0.0000    0.0000   17.9757    0.0000
       6      0.0000    0.0000    0.0000    0.0000    0.0000   22.3139
-------------------------------------------------------------------------------


  Elastic Compliance Matrix: (Units=1/GPa)

-------------------------------------------------------------------------------
  Indices      1         2         3         4         5         6    
-------------------------------------------------------------------------------
       1    0.022661 -0.005131 -0.008647  0.000000  0.000000  0.000000
       2   -0.005131  0.019864 -0.006836  0.000000  0.000000  0.000000
       3   -0.008647 -0.006836  0.023250  0.000000  0.000000  0.000000
       4    0.000000  0.000000  0.000000  0.052823  0.000000  0.000000
       5    0.000000  0.000000  0.000000  0.000000  0.055631  0.000000
       6    0.000000  0.000000  0.000000  0.000000  0.000000  0.044815
-------------------------------------------------------------------------------

  Mechanical properties :

-------------------------------------------------------------------------------
  Convention :                    Reuss         Voigt         Hill
-------------------------------------------------------------------------------
  Bulk  Modulus (GPa)     =      40.73716      40.77907      40.75811
  Shear Modulus (GPa)     =      18.62514      18.87096      18.74805
-------------------------------------------------------------------------------
  Velocity S-wave (km/s)  =       2.59254       2.60960       2.60108
  Velocity P-wave (km/s)  =       4.86442       4.87812       4.87127
-------------------------------------------------------------------------------
  Compressibility (1/GPa) =    0.02454761
-------------------------------------------------------------------------------
  Stress axis :                     x             y             z
-------------------------------------------------------------------------------
  Youngs Moduli (GPa)     =      44.12879      50.34127      43.01068
-------------------------------------------------------------------------------
  Poissons Ratio (x)      =                     0.25829       0.37190
  Poissons Ratio (y)      =       0.22642                     0.29403
  Poissons Ratio (z)      =       0.38157       0.34415
-------------------------------------------------------------------------------


  Piezoelectric Strain Matrix: (Units=C/m**2)

-------------------------------------------------------------------------------
  Indices      1         2         3         4         5         6    
-------------------------------------------------------------------------------
       x     0.00000   0.00000   0.00000   0.00000   0.00000   0.00000
       y     0.00000   0.00000   0.00000   0.00000   0.00000   0.00000
       z     0.00000   0.00000   0.00000   0.00000   0.00000   0.00000
-------------------------------------------------------------------------------


  Piezoelectric Stress Matrix: (Units=10**-11 C/N)

-------------------------------------------------------------------------------
  Indices      1         2         3         4         5         6    
-------------------------------------------------------------------------------
       x     0.00000   0.00000   0.00000   0.00000   0.00000   0.00000
       y     0.00000   0.00000   0.00000   0.00000   0.00000   0.00000
       z     0.00000   0.00000   0.00000   0.00000   0.00000   0.00000
-------------------------------------------------------------------------------


  Static dielectric constant tensor : 

-------------------------------------------------------------------------------
              x         y         z
-------------------------------------------------------------------------------
       x     3.59560   0.00000   0.00000
       y     0.00000   3.76633   0.00000
       z     0.00000   0.00000   3.36788
--------------------------------------------------------------------------------

  High frequency dielectric constant tensor : 

-------------------------------------------------------------------------------
              x         y         z
-------------------------------------------------------------------------------
       x     1.50887   0.00000   0.00000
       y     0.00000   1.51007   0.00000
       z     0.00000   0.00000   1.50714
-------------------------------------------------------------------------------

  Static refractive indices : 

-------------------------------------------------------------------------------
    1 =    1.83518      2 =    1.89621      3 =    1.94070
-------------------------------------------------------------------------------

  High frequency refractive indices : 

-------------------------------------------------------------------------------
    1 =    1.22766      2 =    1.22836      3 =    1.22885
-------------------------------------------------------------------------------


  Time to end of optimisation =       0.0370 seconds


  Peak dynamic memory used =       0.73 MB 


  Timing analysis for GULP :

--------------------------------------------------------------------------------
  Task / Subroutine                                          Time (Seconds)
--------------------------------------------------------------------------------
  Calculation of reciprocal space energy and derivatives          0.0025
  Calculation of reciprocal space energy using symmetry           0.0023
  Calculation of real space energy and derivatives                0.0132
  Calculation of real space energy using symmetry                 0.0146
  Symmetry generation of equivalent positions                     0.0003
--------------------------------------------------------------------------------
  Total CPU time                                                  0.0371
--------------------------------------------------------------------------------


  CIF file written as perov.cif                                               


  Job Finished at 09:35.58  6th April      2017                               

