********************************************************************************
*                       GENERAL UTILITY LATTICE PROGRAM                        *
*                                 Julian Gale                                  *
*                      Nanochemistry Research Institute                        *
*                           Department of Chemistry                            *
*                    Curtin University, Western Australia                      *
********************************************************************************
* Version = 4.3.2 * Last modified =  3rd March 2015                            *
********************************************************************************
*  optimise     - perform optimisation run                                     *
*  cell_only    - only optimise unit cell                                      *
*  property     - calculate properties for final geometry                      *
********************************************************************************

  Job Started  at 09:35.59  6th April      2017                               

  Number of CPUs =     1


  Total number of configurations input =   1

********************************************************************************
*  Input for Configuration =   1                                               *
********************************************************************************

  Formula = K4Ca4F12                                                    

  Number of irreducible atoms/shells =       6


  Total number atoms/shells =      32

  Dimensionality = 3               :  Bulk   


  Symmetry :

  Crystal family                   :  Orthorhombic
  Crystal class  (Groth - 1921)    :  Orthorhombic Bipyramidal             

  Space group (centrosymmetric)    :  P N M A         

  Patterson group                  :  P m m m  

  Cartesian lattice vectors (Angstroms) :

        6.223500    0.000000    0.000000
        0.000000    8.710300    0.000000
        0.000000    0.000000    6.118000

  Cell parameters (Angstroms/Degrees):

  a =       6.2235    alpha =  90.0000
  b =       8.7103    beta  =  90.0000
  c =       6.1180    gamma =  90.0000

  Initial cell volume =         331.647921 Angs**3

  Temperature of configuration =  0.000     K 

  Pressure of configuration =         0.000 GPa 

  Fractional coordinates of asymmetric unit :

--------------------------------------------------------------------------------
   No.  Atomic       x           y          z         Charge      Occupancy
        Label      (Frac)      (Frac)     (Frac)        (e)         (Frac)  
--------------------------------------------------------------------------------
      1 K     c    0.042000    0.250000    0.490600     0.90000    1.000000    
      2 Ca    c    0.000000    0.000000    0.000000     2.00000    1.000000    
      3 F     c    0.471500    0.250000    0.581200     0.37800    1.000000    
      4 F     c    0.291600    0.040400    0.206800     0.37800    1.000000    
      5 F     s    0.471500    0.250000    0.581200    -1.34467    1.000000    
      6 F     s    0.291600    0.040400    0.206800    -1.34467    1.000000    
--------------------------------------------------------------------------------



********************************************************************************
*  General input information                                                   *
********************************************************************************

  Species output for all configurations : 

--------------------------------------------------------------------------------
  Species    Type    Atomic    Atomic    Charge       Radii (Angs)     Library
                     Number     Mass       (e)     Cova   Ionic  VDW   Symbol
--------------------------------------------------------------------------------
    K        Core       19      39.10   0.900000   1.330  0.000  2.800          
    Ca       Core       20      40.08   2.000000   0.990  0.000  2.750          
    F        Core        9      19.00   0.378000   0.710  0.000  1.300          
    F        Shell       9       0.00  -1.344667   0.710  0.000  1.300          
--------------------------------------------------------------------------------


  Lattice summation method               =    Ewald          (3-D)
                                         =    Parry          (2-D)
                                         =    Saunders et al (1-D)
  Accuracy factor for lattice sums       =   12.000


  Time limit = Infinity

  Maximum range for interatomic potentials =    100000.000000 Angstroms

  General interatomic potentials :

--------------------------------------------------------------------------------
Atom  Types   Potential         A         B         C         D     Cutoffs(Ang)
  1     2                                                            Min    Max 
--------------------------------------------------------------------------------
K    c K    c Buckingham    0.219E+04 0.192      0.00      0.00     0.000 10.000
Ca   c F    s Buckingham    0.148E+04 0.266      0.00      0.00     0.000 10.000
F    s F    s Buckingham     912.     0.271      13.8      0.00     0.000 10.000
K    c F    s Buckingham    0.352E+04 0.267      0.00      0.00     0.000 10.000
F    c F    s Spring (c-s)   23.2      0.00      0.00      0.00     0.000  0.800
--------------------------------------------------------------------------------

********************************************************************************
*  Output for configuration   1                                                *
********************************************************************************


  Components of energy : 

--------------------------------------------------------------------------------
  Interatomic potentials     =          10.66009013 eV
  Monopole - monopole (real) =         -69.19271123 eV
  Monopole - monopole (recip)=         -84.51032059 eV
  Monopole - monopole (total)=        -153.70303182 eV
--------------------------------------------------------------------------------
  Total lattice energy       =        -143.04294169 eV
--------------------------------------------------------------------------------
  Total lattice energy       =          -13801.4573 kJ/(mole unit cells)
--------------------------------------------------------------------------------


  Number of variables =        3

  Maximum number of calculations  =          1000
  Maximum Hessian update interval =            10
  Maximum step size               =   1.000000000
  Maximum parameter tolerance     =   0.000010000
  Maximum function  tolerance     =   0.000010000
  Maximum gradient  tolerance     =   0.001000000
  Maximum gradient  component     =   0.010000000

  Symmetry constrained optimisation

  Symmetry used for second derivatives

  Cell parameters to be optimised using strains

  Newton-Raphson optimiser to be used

  BFGS hessian update to be used

  Start of bulk optimisation :

  Cycle:      0 Energy:      -143.042942  Gnorm:     10.430671  CPU:    0.007
  ** Hessian calculated **
  Cycle:      1 Energy:      -144.788270  Gnorm:      2.350875  CPU:    0.013
  Cycle:      2 Energy:      -144.844070  Gnorm:      0.701156  CPU:    0.019
  Cycle:      3 Energy:      -144.851812  Gnorm:      0.197273  CPU:    0.024
  Cycle:      4 Energy:      -144.852439  Gnorm:      0.000907  CPU:    0.031


  **** Optimisation achieved ****


  Final energy =    -144.85243871 eV
  Final Gnorm  =       0.00003405

  Components of energy : 

--------------------------------------------------------------------------------
  Interatomic potentials     =          18.59426869 eV
  Monopole - monopole (real) =         -73.57583807 eV
  Monopole - monopole (recip)=         -89.87086933 eV
  Monopole - monopole (total)=        -163.44670739 eV
--------------------------------------------------------------------------------
  Total lattice energy       =        -144.85243871 eV
--------------------------------------------------------------------------------
  Total lattice energy       =          -13976.0461 kJ/(mole unit cells)
--------------------------------------------------------------------------------

  Final asymmetric unit coordinates :

--------------------------------------------------------------------------------
   No.  Atomic        x           y           z         Radius
        Label       (Frac)      (Frac)      (Frac)       (Angs) 
--------------------------------------------------------------------------------
     1  K     c     0.042000    0.250000    0.490600    0.000000
     2  Ca    c     0.000000    0.000000    0.000000    0.000000
     3  F     c     0.471500    0.250000    0.581200    0.000000
     4  F     c     0.291600    0.040400    0.206800    0.000000
     5  F     s     0.471500    0.250000    0.581200    0.000000
     6  F     s     0.291600    0.040400    0.206800    0.000000
--------------------------------------------------------------------------------

  Final Cartesian lattice vectors (Angstroms) :

        5.871451    0.000000    0.000000
        0.000000    8.146211    0.000000
        0.000000    0.000000    5.765610


  Final cell parameters and derivatives :

--------------------------------------------------------------------------------
       a            5.871451 Angstrom     dE/de1(xx)     0.000035 eV/strain
       b            8.146211 Angstrom     dE/de2(yy)     0.000092 eV/strain
       c            5.765610 Angstrom     dE/de3(zz)     0.000027 eV/strain
       alpha       90.000000 Degrees      dE/de4(yz)     0.000000 eV/strain
       beta        90.000000 Degrees      dE/de5(xz)     0.000000 eV/strain
       gamma       90.000000 Degrees      dE/de6(xy)     0.000000 eV/strain
--------------------------------------------------------------------------------

  Primitive cell volume =           275.769556 Angs**3

  Density of cell =      3.280069 g/cm**3

  Non-primitive cell volume =           275.769556 Angs**3


  Final internal derivatives :

--------------------------------------------------------------------------------
   No.  Atomic          a             b             c           Radius
        Label          (eV)          (eV)          (eV)        (eV/Angs)
--------------------------------------------------------------------------------
      1 K     c       0.000000      0.000000      0.000000      0.000000
      2 Ca    c       0.000000      0.000000      0.000000      0.000000
      3 F     c       0.000000      0.000000      0.000000      0.000000
      4 F     c       0.000000      0.000000      0.000000      0.000000
      5 F     s       0.000000      0.000000      0.000000      0.000000
      6 F     s       0.000000      0.000000      0.000000      0.000000
--------------------------------------------------------------------------------
  Maximum abs         0.000000      0.000000      0.000000      0.000000
--------------------------------------------------------------------------------


  Born effective charge tensors : 

-------------------------------------------------------------------------------
  Atom             x           y             z
-------------------------------------------------------------------------------
   1 K     x       0.7579      0.0000     -0.0468
           y       0.0000      0.8019      0.0000
           z      -0.0458      0.0000      0.7477
-------------------------------------------------------------------------------
   2 Ca    x       1.8051      0.0108     -0.0290
           y      -0.0023      1.7687     -0.0183
           z       0.0094      0.0285      1.8063
-------------------------------------------------------------------------------
   3 F     x      -0.7726      0.0000      0.0252
           y       0.0000     -0.9964      0.0000
           z       0.0401      0.0000     -0.7495
-------------------------------------------------------------------------------
   4 F     x      -0.8952      0.0226     -0.1192
           y       0.0273     -0.7871     -0.0193
           z      -0.1172     -0.0187     -0.9022
-------------------------------------------------------------------------------




  Elastic Constant Matrix: (Units=GPa)

-------------------------------------------------------------------------------
  Indices      1         2         3         4         5         6    
-------------------------------------------------------------------------------
       1    107.8780   48.2200   49.2774    0.0000    0.0000    0.0000
       2     48.2200  112.3681   54.4509    0.0000    0.0000    0.0000
       3     49.2774   54.4509  112.6338    0.0000    0.0000    0.0000
       4      0.0000    0.0000    0.0000   36.4408    0.0000    0.0000
       5      0.0000    0.0000    0.0000    0.0000   27.1028    0.0000
       6      0.0000    0.0000    0.0000    0.0000    0.0000   42.6020
-------------------------------------------------------------------------------


  Elastic Compliance Matrix: (Units=1/GPa)

-------------------------------------------------------------------------------
  Indices      1         2         3         4         5         6    
-------------------------------------------------------------------------------
       1    0.012594 -0.003571 -0.003784  0.000000  0.000000  0.000000
       2   -0.003571  0.012634 -0.004546  0.000000  0.000000  0.000000
       3   -0.003784 -0.004546  0.012731  0.000000  0.000000  0.000000
       4    0.000000  0.000000  0.000000  0.027442  0.000000  0.000000
       5    0.000000  0.000000  0.000000  0.000000  0.036897  0.000000
       6    0.000000  0.000000  0.000000  0.000000  0.000000  0.023473
-------------------------------------------------------------------------------

  Mechanical properties :

-------------------------------------------------------------------------------
  Convention :                    Reuss         Voigt         Hill
-------------------------------------------------------------------------------
  Bulk  Modulus (GPa)     =      70.62480      70.75295      70.68887
  Shear Modulus (GPa)     =      32.40619      33.29123      32.84871
-------------------------------------------------------------------------------
  Velocity S-wave (km/s)  =       3.14320       3.18584       3.16459
  Velocity P-wave (km/s)  =       5.89105       5.92480       5.90795
-------------------------------------------------------------------------------
  Compressibility (1/GPa) =    0.01415933
-------------------------------------------------------------------------------
  Stress axis :                     x             y             z
-------------------------------------------------------------------------------
  Youngs Moduli (GPa)     =      79.40124      79.14886      78.54751
-------------------------------------------------------------------------------
  Poissons Ratio (x)      =                     0.28265       0.29719
  Poissons Ratio (y)      =       0.28355                     0.35704
  Poissons Ratio (z)      =       0.30043       0.35978
-------------------------------------------------------------------------------


  Piezoelectric Strain Matrix: (Units=C/m**2)

-------------------------------------------------------------------------------
  Indices      1         2         3         4         5         6    
-------------------------------------------------------------------------------
       x     0.00000   0.00000   0.00000   0.00000   0.00000   0.00000
       y     0.00000   0.00000   0.00000   0.00000   0.00000   0.00000
       z     0.00000   0.00000   0.00000   0.00000   0.00000   0.00000
-------------------------------------------------------------------------------


  Piezoelectric Stress Matrix: (Units=10**-11 C/N)

-------------------------------------------------------------------------------
  Indices      1         2         3         4         5         6    
-------------------------------------------------------------------------------
       x     0.00000   0.00000   0.00000   0.00000   0.00000   0.00000
       y     0.00000   0.00000   0.00000   0.00000   0.00000   0.00000
       z     0.00000   0.00000   0.00000   0.00000   0.00000   0.00000
-------------------------------------------------------------------------------


  Static dielectric constant tensor : 

-------------------------------------------------------------------------------
              x         y         z
-------------------------------------------------------------------------------
       x     3.93252   0.00000   0.00000
       y     0.00000   3.90335   0.00000
       z     0.00000   0.00000   3.73065
--------------------------------------------------------------------------------

  High frequency dielectric constant tensor : 

-------------------------------------------------------------------------------
              x         y         z
-------------------------------------------------------------------------------
       x     1.59851   0.00000   0.00000
       y     0.00000   1.60014   0.00000
       z     0.00000   0.00000   1.59639
-------------------------------------------------------------------------------

  Static refractive indices : 

-------------------------------------------------------------------------------
    1 =    1.93149      2 =    1.97569      3 =    1.98306
-------------------------------------------------------------------------------

  High frequency refractive indices : 

-------------------------------------------------------------------------------
    1 =    1.26348      2 =    1.26432      3 =    1.26497
-------------------------------------------------------------------------------


  Time to end of optimisation =       0.0534 seconds


  Peak dynamic memory used =       0.73 MB 


  Timing analysis for GULP :

--------------------------------------------------------------------------------
  Task / Subroutine                                          Time (Seconds)
--------------------------------------------------------------------------------
  Calculation of reciprocal space energy and derivatives          0.0027
  Calculation of reciprocal space energy using symmetry           0.0045
  Calculation of real space energy and derivatives                0.0125
  Calculation of real space energy using symmetry                 0.0294
  Symmetry generation of equivalent positions                     0.0004
--------------------------------------------------------------------------------
  Total CPU time                                                  0.0534
--------------------------------------------------------------------------------


  CIF file written as perov.cif                                               


  Job Finished at 09:35.59  6th April      2017                               

