********************************************************************************
*                       GENERAL UTILITY LATTICE PROGRAM                        *
*                                 Julian Gale                                  *
*                      Nanochemistry Research Institute                        *
*                           Department of Chemistry                            *
*                    Curtin University, Western Australia                      *
********************************************************************************
* Version = 4.3.2 * Last modified =  3rd March 2015                            *
********************************************************************************
*  optimise     - perform optimisation run                                     *
*  cell_only    - only optimise unit cell                                      *
*  property     - calculate properties for final geometry                      *
********************************************************************************

  Job Started  at 09:35.57  6th April      2017                               

  Number of CPUs =     1


  Total number of configurations input =   1

********************************************************************************
*  Input for Configuration =   1                                               *
********************************************************************************

  Formula = K4Ca4F12                                                    

  Number of irreducible atoms/shells =       6


  Total number atoms/shells =      32

  Dimensionality = 3               :  Bulk   


  Symmetry :

  Crystal family                   :  Orthorhombic
  Crystal class  (Groth - 1921)    :  Orthorhombic Bipyramidal             

  Space group (centrosymmetric)    :  P N M A         

  Patterson group                  :  P m m m  

  Cartesian lattice vectors (Angstroms) :

        6.223500    0.000000    0.000000
        0.000000    8.710300    0.000000
        0.000000    0.000000    6.118000

  Cell parameters (Angstroms/Degrees):

  a =       6.2235    alpha =  90.0000
  b =       8.7103    beta  =  90.0000
  c =       6.1180    gamma =  90.0000

  Initial cell volume =         331.647921 Angs**3

  Temperature of configuration =  0.000     K 

  Pressure of configuration =         0.000 GPa 

  Fractional coordinates of asymmetric unit :

--------------------------------------------------------------------------------
   No.  Atomic       x           y          z         Charge      Occupancy
        Label      (Frac)      (Frac)     (Frac)        (e)         (Frac)  
--------------------------------------------------------------------------------
      1 K     c    0.042000    0.250000    0.490600     0.50000    1.000000    
      2 Ca    c    0.000000    0.000000    0.000000     2.10000    1.000000    
      3 F     c    0.471500    0.250000    0.581200     0.37800    1.000000    
      4 F     c    0.291600    0.040400    0.206800     0.37800    1.000000    
      5 F     s    0.471500    0.250000    0.581200    -1.24467    1.000000    
      6 F     s    0.291600    0.040400    0.206800    -1.24467    1.000000    
--------------------------------------------------------------------------------



********************************************************************************
*  General input information                                                   *
********************************************************************************

  Species output for all configurations : 

--------------------------------------------------------------------------------
  Species    Type    Atomic    Atomic    Charge       Radii (Angs)     Library
                     Number     Mass       (e)     Cova   Ionic  VDW   Symbol
--------------------------------------------------------------------------------
    K        Core       19      39.10   0.500000   1.330  0.000  2.800          
    Ca       Core       20      40.08   2.100000   0.990  0.000  2.750          
    F        Core        9      19.00   0.378000   0.710  0.000  1.300          
    F        Shell       9       0.00  -1.244667   0.710  0.000  1.300          
--------------------------------------------------------------------------------


  Lattice summation method               =    Ewald          (3-D)
                                         =    Parry          (2-D)
                                         =    Saunders et al (1-D)
  Accuracy factor for lattice sums       =   12.000


  Time limit = Infinity

  Maximum range for interatomic potentials =    100000.000000 Angstroms

  General interatomic potentials :

--------------------------------------------------------------------------------
Atom  Types   Potential         A         B         C         D     Cutoffs(Ang)
  1     2                                                            Min    Max 
--------------------------------------------------------------------------------
K    c K    c Buckingham    0.219E+04 0.192      0.00      0.00     0.000 10.000
Ca   c F    s Buckingham    0.148E+04 0.266      0.00      0.00     0.000 10.000
F    s F    s Buckingham     912.     0.271      13.8      0.00     0.000 10.000
K    c F    s Buckingham    0.352E+04 0.267      0.00      0.00     0.000 10.000
F    c F    s Spring (c-s)   19.9      0.00      0.00      0.00     0.000  0.800
--------------------------------------------------------------------------------

********************************************************************************
*  Output for configuration   1                                                *
********************************************************************************


  Components of energy : 

--------------------------------------------------------------------------------
  Interatomic potentials     =          10.66009013 eV
  Monopole - monopole (real) =         -61.33172212 eV
  Monopole - monopole (recip)=         -76.62581114 eV
  Monopole - monopole (total)=        -137.95753325 eV
--------------------------------------------------------------------------------
  Total lattice energy       =        -127.29744312 eV
--------------------------------------------------------------------------------
  Total lattice energy       =          -12282.2573 kJ/(mole unit cells)
--------------------------------------------------------------------------------


  Number of variables =        3

  Maximum number of calculations  =          1000
  Maximum Hessian update interval =            10
  Maximum step size               =   1.000000000
  Maximum parameter tolerance     =   0.000010000
  Maximum function  tolerance     =   0.000010000
  Maximum gradient  tolerance     =   0.001000000
  Maximum gradient  component     =   0.010000000

  Symmetry constrained optimisation

  Symmetry used for second derivatives

  Cell parameters to be optimised using strains

  Newton-Raphson optimiser to be used

  BFGS hessian update to be used

  Start of bulk optimisation :

  Cycle:      0 Energy:      -127.297443  Gnorm:      7.400968  CPU:    0.007
  ** Hessian calculated **
  Cycle:      1 Energy:      -128.217139  Gnorm:      1.225740  CPU:    0.013
  Cycle:      2 Energy:      -128.235873  Gnorm:      0.275736  CPU:    0.018
  Cycle:      3 Energy:      -128.237086  Gnorm:      0.037115  CPU:    0.025
  Cycle:      4 Energy:      -128.237107  Gnorm:      0.018752  CPU:    0.031


  **** Optimisation achieved ****


  Final energy =    -128.23711421 eV
  Final Gnorm  =       0.00000993

  Components of energy : 

--------------------------------------------------------------------------------
  Interatomic potentials     =          16.18364017 eV
  Monopole - monopole (real) =         -64.20240597 eV
  Monopole - monopole (recip)=         -80.21834842 eV
  Monopole - monopole (total)=        -144.42075439 eV
--------------------------------------------------------------------------------
  Total lattice energy       =        -128.23711421 eV
--------------------------------------------------------------------------------
  Total lattice energy       =          -12372.9212 kJ/(mole unit cells)
--------------------------------------------------------------------------------

  Final asymmetric unit coordinates :

--------------------------------------------------------------------------------
   No.  Atomic        x           y           z         Radius
        Label       (Frac)      (Frac)      (Frac)       (Angs) 
--------------------------------------------------------------------------------
     1  K     c     0.042000    0.250000    0.490600    0.000000
     2  Ca    c     0.000000    0.000000    0.000000    0.000000
     3  F     c     0.471500    0.250000    0.581200    0.000000
     4  F     c     0.291600    0.040400    0.206800    0.000000
     5  F     s     0.471500    0.250000    0.581200    0.000000
     6  F     s     0.291600    0.040400    0.206800    0.000000
--------------------------------------------------------------------------------

  Final Cartesian lattice vectors (Angstroms) :

        5.962376    0.000000    0.000000
        0.000000    8.274948    0.000000
        0.000000    0.000000    5.858545


  Final cell parameters and derivatives :

--------------------------------------------------------------------------------
       a            5.962376 Angstrom     dE/de1(xx)     0.000014 eV/strain
       b            8.274948 Angstrom     dE/de2(yy)     0.000024 eV/strain
       c            5.858545 Angstrom     dE/de3(zz)     0.000011 eV/strain
       alpha       90.000000 Degrees      dE/de4(yz)     0.000000 eV/strain
       beta        90.000000 Degrees      dE/de5(xz)     0.000000 eV/strain
       gamma       90.000000 Degrees      dE/de6(xy)     0.000000 eV/strain
--------------------------------------------------------------------------------

  Primitive cell volume =           289.050943 Angs**3

  Density of cell =      3.129356 g/cm**3

  Non-primitive cell volume =           289.050943 Angs**3


  Final internal derivatives :

--------------------------------------------------------------------------------
   No.  Atomic          a             b             c           Radius
        Label          (eV)          (eV)          (eV)        (eV/Angs)
--------------------------------------------------------------------------------
      1 K     c       0.000000      0.000000      0.000000      0.000000
      2 Ca    c       0.000000      0.000000      0.000000      0.000000
      3 F     c       0.000000      0.000000      0.000000      0.000000
      4 F     c       0.000000      0.000000      0.000000      0.000000
      5 F     s       0.000000      0.000000      0.000000      0.000000
      6 F     s       0.000000      0.000000      0.000000      0.000000
--------------------------------------------------------------------------------
  Maximum abs         0.000000      0.000000      0.000000      0.000000
--------------------------------------------------------------------------------


  Born effective charge tensors : 

-------------------------------------------------------------------------------
  Atom             x           y             z
-------------------------------------------------------------------------------
   1 K     x       0.3135      0.0000     -0.0597
           y       0.0000      0.3560      0.0000
           z      -0.0498      0.0000      0.3051
-------------------------------------------------------------------------------
   2 Ca    x       1.9630      0.0110     -0.0442
           y      -0.0086      1.9252     -0.0318
           z       0.0178      0.0418      1.9650
-------------------------------------------------------------------------------
   3 F     x      -0.6435      0.0000      0.0314
           y       0.0000     -0.9714      0.0000
           z       0.0487      0.0000     -0.6200
-------------------------------------------------------------------------------
   4 F     x      -0.8165      0.0237     -0.1741
           y       0.0269     -0.6549     -0.0117
           z      -0.1717     -0.0099     -0.8250
-------------------------------------------------------------------------------




  Elastic Constant Matrix: (Units=GPa)

-------------------------------------------------------------------------------
  Indices      1         2         3         4         5         6    
-------------------------------------------------------------------------------
       1     87.7176   40.0789   48.5236    0.0000    0.0000    0.0000
       2     40.0789   95.9663   48.9832    0.0000    0.0000    0.0000
       3     48.5236   48.9832   87.2197    0.0000    0.0000    0.0000
       4      0.0000    0.0000    0.0000   26.0152    0.0000    0.0000
       5      0.0000    0.0000    0.0000    0.0000   22.6446    0.0000
       6      0.0000    0.0000    0.0000    0.0000    0.0000   32.6006
-------------------------------------------------------------------------------


  Elastic Compliance Matrix: (Units=1/GPa)

-------------------------------------------------------------------------------
  Indices      1         2         3         4         5         6    
-------------------------------------------------------------------------------
       1    0.017147 -0.003213 -0.007735  0.000000  0.000000  0.000000
       2   -0.003213  0.015210 -0.006754  0.000000  0.000000  0.000000
       3   -0.007735 -0.006754  0.019562  0.000000  0.000000  0.000000
       4    0.000000  0.000000  0.000000  0.038439  0.000000  0.000000
       5    0.000000  0.000000  0.000000  0.000000  0.044161  0.000000
       6    0.000000  0.000000  0.000000  0.000000  0.000000  0.030674
-------------------------------------------------------------------------------

  Mechanical properties :

-------------------------------------------------------------------------------
  Convention :                    Reuss         Voigt         Hill
-------------------------------------------------------------------------------
  Bulk  Modulus (GPa)     =      60.55557      60.67500      60.61529
  Shear Modulus (GPa)     =      24.25974      25.13994      24.69984
-------------------------------------------------------------------------------
  Velocity S-wave (km/s)  =       2.78430       2.83436       2.80944
  Velocity P-wave (km/s)  =       5.44860       5.48638       5.46752
-------------------------------------------------------------------------------
  Compressibility (1/GPa) =    0.01651376
-------------------------------------------------------------------------------
  Stress axis :                     x             y             z
-------------------------------------------------------------------------------
  Youngs Moduli (GPa)     =      58.31839      65.74718      51.11963
-------------------------------------------------------------------------------
  Poissons Ratio (x)      =                     0.21125       0.39542
  Poissons Ratio (y)      =       0.18738                     0.34528
  Poissons Ratio (z)      =       0.45110       0.44408
-------------------------------------------------------------------------------


  Piezoelectric Strain Matrix: (Units=C/m**2)

-------------------------------------------------------------------------------
  Indices      1         2         3         4         5         6    
-------------------------------------------------------------------------------
       x     0.00000   0.00000   0.00000   0.00000   0.00000   0.00000
       y     0.00000   0.00000   0.00000   0.00000   0.00000   0.00000
       z     0.00000   0.00000   0.00000   0.00000   0.00000   0.00000
-------------------------------------------------------------------------------


  Piezoelectric Stress Matrix: (Units=10**-11 C/N)

-------------------------------------------------------------------------------
  Indices      1         2         3         4         5         6    
-------------------------------------------------------------------------------
       x     0.00000   0.00000   0.00000   0.00000   0.00000   0.00000
       y     0.00000   0.00000   0.00000   0.00000   0.00000   0.00000
       z     0.00000   0.00000   0.00000   0.00000   0.00000   0.00000
-------------------------------------------------------------------------------


  Static dielectric constant tensor : 

-------------------------------------------------------------------------------
              x         y         z
-------------------------------------------------------------------------------
       x     3.90694   0.00000   0.00000
       y     0.00000   3.60536   0.00000
       z     0.00000   0.00000   3.74848
--------------------------------------------------------------------------------

  High frequency dielectric constant tensor : 

-------------------------------------------------------------------------------
              x         y         z
-------------------------------------------------------------------------------
       x     1.57077   0.00000   0.00000
       y     0.00000   1.57192   0.00000
       z     0.00000   0.00000   1.56901
-------------------------------------------------------------------------------

  Static refractive indices : 

-------------------------------------------------------------------------------
    1 =    1.89878      2 =    1.93610      3 =    1.97660
-------------------------------------------------------------------------------

  High frequency refractive indices : 

-------------------------------------------------------------------------------
    1 =    1.25260      2 =    1.25330      3 =    1.25376
-------------------------------------------------------------------------------


  Time to end of optimisation =       0.0539 seconds


  Peak dynamic memory used =       0.73 MB 


  Timing analysis for GULP :

--------------------------------------------------------------------------------
  Task / Subroutine                                          Time (Seconds)
--------------------------------------------------------------------------------
  Calculation of reciprocal space energy and derivatives          0.0026
  Calculation of reciprocal space energy using symmetry           0.0044
  Calculation of real space energy and derivatives                0.0133
  Calculation of real space energy using symmetry                 0.0293
  Symmetry generation of equivalent positions                     0.0004
--------------------------------------------------------------------------------
  Total CPU time                                                  0.0539
--------------------------------------------------------------------------------


  CIF file written as perov.cif                                               


  Job Finished at 09:35.57  6th April      2017                               

