********************************************************************************
*                       GENERAL UTILITY LATTICE PROGRAM                        *
*                                 Julian Gale                                  *
*                      Nanochemistry Research Institute                        *
*                           Department of Chemistry                            *
*                    Curtin University, Western Australia                      *
********************************************************************************
* Version = 4.3.2 * Last modified =  3rd March 2015                            *
********************************************************************************
*  optimise     - perform optimisation run                                     *
*  cell_only    - only optimise unit cell                                      *
*  property     - calculate properties for final geometry                      *
********************************************************************************

  Job Started  at 09:36.02  6th April      2017                               

  Number of CPUs =     1


  Total number of configurations input =   1

********************************************************************************
*  Input for Configuration =   1                                               *
********************************************************************************

  Formula = K4Ca4F12                                                    

  Number of irreducible atoms/shells =       6


  Total number atoms/shells =      32

  Dimensionality = 3               :  Bulk   


  Symmetry :

  Crystal family                   :  Orthorhombic
  Crystal class  (Groth - 1921)    :  Orthorhombic Bipyramidal             

  Space group (centrosymmetric)    :  P N M A         

  Patterson group                  :  P m m m  

  Cartesian lattice vectors (Angstroms) :

        6.223500    0.000000    0.000000
        0.000000    8.710300    0.000000
        0.000000    0.000000    6.118000

  Cell parameters (Angstroms/Degrees):

  a =       6.2235    alpha =  90.0000
  b =       8.7103    beta  =  90.0000
  c =       6.1180    gamma =  90.0000

  Initial cell volume =         331.647921 Angs**3

  Temperature of configuration =  0.000     K 

  Pressure of configuration =         0.000 GPa 

  Fractional coordinates of asymmetric unit :

--------------------------------------------------------------------------------
   No.  Atomic       x           y          z         Charge      Occupancy
        Label      (Frac)      (Frac)     (Frac)        (e)         (Frac)  
--------------------------------------------------------------------------------
      1 K     c    0.042000    0.250000    0.490600     1.30000    1.000000    
      2 Ca    c    0.000000    0.000000    0.000000     2.00000    1.000000    
      3 F     c    0.471500    0.250000    0.581200     0.37800    1.000000    
      4 F     c    0.291600    0.040400    0.206800     0.37800    1.000000    
      5 F     s    0.471500    0.250000    0.581200    -1.47800    1.000000    
      6 F     s    0.291600    0.040400    0.206800    -1.47800    1.000000    
--------------------------------------------------------------------------------



********************************************************************************
*  General input information                                                   *
********************************************************************************

  Species output for all configurations : 

--------------------------------------------------------------------------------
  Species    Type    Atomic    Atomic    Charge       Radii (Angs)     Library
                     Number     Mass       (e)     Cova   Ionic  VDW   Symbol
--------------------------------------------------------------------------------
    K        Core       19      39.10   1.300000   1.330  0.000  2.800          
    Ca       Core       20      40.08   2.000000   0.990  0.000  2.750          
    F        Core        9      19.00   0.378000   0.710  0.000  1.300          
    F        Shell       9       0.00  -1.478000   0.710  0.000  1.300          
--------------------------------------------------------------------------------


  Lattice summation method               =    Ewald          (3-D)
                                         =    Parry          (2-D)
                                         =    Saunders et al (1-D)
  Accuracy factor for lattice sums       =   12.000


  Time limit = Infinity

  Maximum range for interatomic potentials =    100000.000000 Angstroms

  General interatomic potentials :

--------------------------------------------------------------------------------
Atom  Types   Potential         A         B         C         D     Cutoffs(Ang)
  1     2                                                            Min    Max 
--------------------------------------------------------------------------------
K    c K    c Buckingham    0.219E+04 0.192      0.00      0.00     0.000 10.000
Ca   c F    s Buckingham    0.148E+04 0.266      0.00      0.00     0.000 10.000
F    s F    s Buckingham     912.     0.271      13.8      0.00     0.000 10.000
K    c F    s Buckingham    0.352E+04 0.267      0.00      0.00     0.000 10.000
F    c F    s Spring (c-s)   28.0      0.00      0.00      0.00     0.000  0.800
--------------------------------------------------------------------------------

********************************************************************************
*  Output for configuration   1                                                *
********************************************************************************


  Components of energy : 

--------------------------------------------------------------------------------
  Interatomic potentials     =          10.66009013 eV
  Monopole - monopole (real) =         -84.06272224 eV
  Monopole - monopole (recip)=        -103.48074119 eV
  Monopole - monopole (total)=        -187.54346342 eV
--------------------------------------------------------------------------------
  Total lattice energy       =        -176.88337329 eV
--------------------------------------------------------------------------------
  Total lattice energy       =          -17066.5416 kJ/(mole unit cells)
--------------------------------------------------------------------------------


  Number of variables =        3

  Maximum number of calculations  =          1000
  Maximum Hessian update interval =            10
  Maximum step size               =   1.000000000
  Maximum parameter tolerance     =   0.000010000
  Maximum function  tolerance     =   0.000010000
  Maximum gradient  tolerance     =   0.001000000
  Maximum gradient  component     =   0.010000000

  Symmetry constrained optimisation

  Symmetry used for second derivatives

  Cell parameters to be optimised using strains

  Newton-Raphson optimiser to be used

  BFGS hessian update to be used

  Start of bulk optimisation :

  Cycle:      0 Energy:      -176.883373  Gnorm:     16.943838  CPU:    0.007
  ** Hessian calculated **
  Cycle:      1 Energy:      -180.980962  Gnorm:      6.776465  CPU:    0.013
  Cycle:      2 Energy:      -181.379709  Gnorm:      0.777298  CPU:    0.020
  Cycle:      3 Energy:      -181.393916  Gnorm:      0.068712  CPU:    0.027
  Cycle:      4 Energy:      -181.393967  Gnorm:      0.001386  CPU:    0.032


  **** Optimisation achieved ****


  Final energy =    -181.39396712 eV
  Final Gnorm  =       0.00023977

  Components of energy : 

--------------------------------------------------------------------------------
  Interatomic potentials     =          24.03746366 eV
  Monopole - monopole (real) =         -92.07677101 eV
  Monopole - monopole (recip)=        -113.35465977 eV
  Monopole - monopole (total)=        -205.43143078 eV
--------------------------------------------------------------------------------
  Total lattice energy       =        -181.39396712 eV
--------------------------------------------------------------------------------
  Total lattice energy       =          -17501.7450 kJ/(mole unit cells)
--------------------------------------------------------------------------------

  Final asymmetric unit coordinates :

--------------------------------------------------------------------------------
   No.  Atomic        x           y           z         Radius
        Label       (Frac)      (Frac)      (Frac)       (Angs) 
--------------------------------------------------------------------------------
     1  K     c     0.042000    0.250000    0.490600    0.000000
     2  Ca    c     0.000000    0.000000    0.000000    0.000000
     3  F     c     0.471500    0.250000    0.581200    0.000000
     4  F     c     0.291600    0.040400    0.206800    0.000000
     5  F     s     0.471500    0.250000    0.581200    0.000000
     6  F     s     0.291600    0.040400    0.206800    0.000000
--------------------------------------------------------------------------------

  Final Cartesian lattice vectors (Angstroms) :

        5.702343    0.000000    0.000000
        0.000000    7.908488    0.000000
        0.000000    0.000000    5.594873


  Final cell parameters and derivatives :

--------------------------------------------------------------------------------
       a            5.702343 Angstrom     dE/de1(xx)     0.000484 eV/strain
       b            7.908488 Angstrom     dE/de2(yy)    -0.000003 eV/strain
       c            5.594873 Angstrom     dE/de3(zz)    -0.000533 eV/strain
       alpha       90.000000 Degrees      dE/de4(yz)     0.000000 eV/strain
       beta        90.000000 Degrees      dE/de5(xz)     0.000000 eV/strain
       gamma       90.000000 Degrees      dE/de6(xy)     0.000000 eV/strain
--------------------------------------------------------------------------------

  Primitive cell volume =           252.311490 Angs**3

  Density of cell =      3.585026 g/cm**3

  Non-primitive cell volume =           252.311490 Angs**3


  Final internal derivatives :

--------------------------------------------------------------------------------
   No.  Atomic          a             b             c           Radius
        Label          (eV)          (eV)          (eV)        (eV/Angs)
--------------------------------------------------------------------------------
      1 K     c       0.000000      0.000000      0.000000      0.000000
      2 Ca    c       0.000000      0.000000      0.000000      0.000000
      3 F     c       0.000000      0.000000      0.000000      0.000000
      4 F     c       0.000000      0.000000      0.000000      0.000000
      5 F     s       0.000000      0.000000      0.000000      0.000000
      6 F     s       0.000000      0.000000      0.000000      0.000000
--------------------------------------------------------------------------------
  Maximum abs         0.000000      0.000000      0.000000      0.000000
--------------------------------------------------------------------------------


  Born effective charge tensors : 

-------------------------------------------------------------------------------
  Atom             x           y             z
-------------------------------------------------------------------------------
   1 K     x       1.1895      0.0000     -0.0435
           y       0.0000      1.2397      0.0000
           z      -0.0475      0.0000      1.1775
-------------------------------------------------------------------------------
   2 Ca    x       1.7396      0.0135     -0.0207
           y       0.0027      1.7011     -0.0105
           z       0.0043      0.0218      1.7399
-------------------------------------------------------------------------------
   3 F     x      -0.9198      0.0000      0.0214
           y       0.0000     -1.0645      0.0000
           z       0.0343      0.0000     -0.8949
-------------------------------------------------------------------------------
   4 F     x      -1.0047      0.0238     -0.0776
           y       0.0311     -0.9382     -0.0280
           z      -0.0756     -0.0287     -1.0112
-------------------------------------------------------------------------------




  Elastic Constant Matrix: (Units=GPa)

-------------------------------------------------------------------------------
  Indices      1         2         3         4         5         6    
-------------------------------------------------------------------------------
       1    145.8151   63.7440   61.9898    0.0000    0.0000    0.0000
       2     63.7440  151.6413   69.4431    0.0000    0.0000    0.0000
       3     61.9898   69.4431  156.4654    0.0000    0.0000    0.0000
       4      0.0000    0.0000    0.0000   51.7502    0.0000    0.0000
       5      0.0000    0.0000    0.0000    0.0000   38.7208    0.0000
       6      0.0000    0.0000    0.0000    0.0000    0.0000   58.8755
-------------------------------------------------------------------------------


  Elastic Compliance Matrix: (Units=1/GPa)

-------------------------------------------------------------------------------
  Indices      1         2         3         4         5         6    
-------------------------------------------------------------------------------
       1    0.009059 -0.002717 -0.002383  0.000000  0.000000  0.000000
       2   -0.002717  0.009091 -0.002959  0.000000  0.000000  0.000000
       3   -0.002383 -0.002959  0.008649  0.000000  0.000000  0.000000
       4    0.000000  0.000000  0.000000  0.019324  0.000000  0.000000
       5    0.000000  0.000000  0.000000  0.000000  0.025826  0.000000
       6    0.000000  0.000000  0.000000  0.000000  0.000000  0.016985
-------------------------------------------------------------------------------

  Mechanical properties :

-------------------------------------------------------------------------------
  Convention :                    Reuss         Voigt         Hill
-------------------------------------------------------------------------------
  Bulk  Modulus (GPa)     =      93.61898      93.80840      93.71369
  Shear Modulus (GPa)     =      46.03593      47.11895      46.57744
-------------------------------------------------------------------------------
  Velocity S-wave (km/s)  =       3.58346       3.62536       3.60447
  Velocity P-wave (km/s)  =       6.57537       6.60992       6.59267
-------------------------------------------------------------------------------
  Compressibility (1/GPa) =    0.01068160
-------------------------------------------------------------------------------
  Stress axis :                     x             y             z
-------------------------------------------------------------------------------
  Youngs Moduli (GPa)     =     110.39043     109.99469     115.62598
-------------------------------------------------------------------------------
  Poissons Ratio (x)      =                     0.29880       0.27557
  Poissons Ratio (y)      =       0.29988                     0.34210
  Poissons Ratio (z)      =       0.26310       0.32544
-------------------------------------------------------------------------------


  Piezoelectric Strain Matrix: (Units=C/m**2)

-------------------------------------------------------------------------------
  Indices      1         2         3         4         5         6    
-------------------------------------------------------------------------------
       x     0.00000   0.00000   0.00000   0.00000   0.00000   0.00000
       y     0.00000   0.00000   0.00000   0.00000   0.00000   0.00000
       z     0.00000   0.00000   0.00000   0.00000   0.00000   0.00000
-------------------------------------------------------------------------------


  Piezoelectric Stress Matrix: (Units=10**-11 C/N)

-------------------------------------------------------------------------------
  Indices      1         2         3         4         5         6    
-------------------------------------------------------------------------------
       x     0.00000   0.00000   0.00000   0.00000   0.00000   0.00000
       y     0.00000   0.00000   0.00000   0.00000   0.00000   0.00000
       z     0.00000   0.00000   0.00000   0.00000   0.00000   0.00000
-------------------------------------------------------------------------------


  Static dielectric constant tensor : 

-------------------------------------------------------------------------------
              x         y         z
-------------------------------------------------------------------------------
       x     4.45225   0.00000   0.00000
       y     0.00000   4.82828   0.00000
       z     0.00000   0.00000   4.21339
--------------------------------------------------------------------------------

  High frequency dielectric constant tensor : 

-------------------------------------------------------------------------------
              x         y         z
-------------------------------------------------------------------------------
       x     1.65340   0.00000   0.00000
       y     0.00000   1.65575   0.00000
       z     0.00000   0.00000   1.65084
-------------------------------------------------------------------------------

  Static refractive indices : 

-------------------------------------------------------------------------------
    1 =    2.05266      2 =    2.11004      3 =    2.19733
-------------------------------------------------------------------------------

  High frequency refractive indices : 

-------------------------------------------------------------------------------
    1 =    1.28485      2 =    1.28585      3 =    1.28676
-------------------------------------------------------------------------------


  Time to end of optimisation =       0.0549 seconds


  Peak dynamic memory used =       0.73 MB 


  Timing analysis for GULP :

--------------------------------------------------------------------------------
  Task / Subroutine                                          Time (Seconds)
--------------------------------------------------------------------------------
  Calculation of reciprocal space energy and derivatives          0.0026
  Calculation of reciprocal space energy using symmetry           0.0046
  Calculation of real space energy and derivatives                0.0127
  Calculation of real space energy using symmetry                 0.0305
  Symmetry generation of equivalent positions                     0.0004
--------------------------------------------------------------------------------
  Total CPU time                                                  0.0549
--------------------------------------------------------------------------------


  CIF file written as perov.cif                                               


  Job Finished at 09:36.02  6th April      2017                               

