********************************************************************************
*                       GENERAL UTILITY LATTICE PROGRAM                        *
*                                 Julian Gale                                  *
*                      Nanochemistry Research Institute                        *
*                           Department of Chemistry                            *
*                    Curtin University, Western Australia                      *
********************************************************************************
* Version = 4.3.2 * Last modified =  3rd March 2015                            *
********************************************************************************
*  optimise     - perform optimisation run                                     *
*  cell_only    - only optimise unit cell                                      *
*  property     - calculate properties for final geometry                      *
********************************************************************************

  Job Started  at 09:36.00  6th April      2017                               

  Number of CPUs =     1


  Total number of configurations input =   1

********************************************************************************
*  Input for Configuration =   1                                               *
********************************************************************************

  Formula = K4Ca4F12                                                    

  Number of irreducible atoms/shells =       6


  Total number atoms/shells =      32

  Dimensionality = 3               :  Bulk   


  Symmetry :

  Crystal family                   :  Orthorhombic
  Crystal class  (Groth - 1921)    :  Orthorhombic Bipyramidal             

  Space group (centrosymmetric)    :  P N M A         

  Patterson group                  :  P m m m  

  Cartesian lattice vectors (Angstroms) :

        6.223500    0.000000    0.000000
        0.000000    8.710300    0.000000
        0.000000    0.000000    6.118000

  Cell parameters (Angstroms/Degrees):

  a =       6.2235    alpha =  90.0000
  b =       8.7103    beta  =  90.0000
  c =       6.1180    gamma =  90.0000

  Initial cell volume =         331.647921 Angs**3

  Temperature of configuration =  0.000     K 

  Pressure of configuration =         0.000 GPa 

  Fractional coordinates of asymmetric unit :

--------------------------------------------------------------------------------
   No.  Atomic       x           y          z         Charge      Occupancy
        Label      (Frac)      (Frac)     (Frac)        (e)         (Frac)  
--------------------------------------------------------------------------------
      1 K     c    0.042000    0.250000    0.490600     1.10000    1.000000    
      2 Ca    c    0.000000    0.000000    0.000000     1.50000    1.000000    
      3 F     c    0.471500    0.250000    0.581200     0.37800    1.000000    
      4 F     c    0.291600    0.040400    0.206800     0.37800    1.000000    
      5 F     s    0.471500    0.250000    0.581200    -1.24467    1.000000    
      6 F     s    0.291600    0.040400    0.206800    -1.24467    1.000000    
--------------------------------------------------------------------------------



********************************************************************************
*  General input information                                                   *
********************************************************************************

  Species output for all configurations : 

--------------------------------------------------------------------------------
  Species    Type    Atomic    Atomic    Charge       Radii (Angs)     Library
                     Number     Mass       (e)     Cova   Ionic  VDW   Symbol
--------------------------------------------------------------------------------
    K        Core       19      39.10   1.100000   1.330  0.000  2.800          
    Ca       Core       20      40.08   1.500000   0.990  0.000  2.750          
    F        Core        9      19.00   0.378000   0.710  0.000  1.300          
    F        Shell       9       0.00  -1.244667   0.710  0.000  1.300          
--------------------------------------------------------------------------------


  Lattice summation method               =    Ewald          (3-D)
                                         =    Parry          (2-D)
                                         =    Saunders et al (1-D)
  Accuracy factor for lattice sums       =   12.000


  Time limit = Infinity

  Maximum range for interatomic potentials =    100000.000000 Angstroms

  General interatomic potentials :

--------------------------------------------------------------------------------
Atom  Types   Potential         A         B         C         D     Cutoffs(Ang)
  1     2                                                            Min    Max 
--------------------------------------------------------------------------------
K    c K    c Buckingham    0.219E+04 0.192      0.00      0.00     0.000 10.000
Ca   c F    s Buckingham    0.148E+04 0.266      0.00      0.00     0.000 10.000
F    s F    s Buckingham     912.     0.271      13.8      0.00     0.000 10.000
K    c F    s Buckingham    0.352E+04 0.267      0.00      0.00     0.000 10.000
F    c F    s Spring (c-s)   19.9      0.00      0.00      0.00     0.000  0.800
--------------------------------------------------------------------------------

********************************************************************************
*  Output for configuration   1                                                *
********************************************************************************


  Components of energy : 

--------------------------------------------------------------------------------
  Interatomic potentials     =          10.66009013 eV
  Monopole - monopole (real) =         -51.10399065 eV
  Monopole - monopole (recip)=         -63.42878198 eV
  Monopole - monopole (total)=        -114.53277263 eV
--------------------------------------------------------------------------------
  Total lattice energy       =        -103.87268249 eV
--------------------------------------------------------------------------------
  Total lattice energy       =          -10022.1260 kJ/(mole unit cells)
--------------------------------------------------------------------------------


  Number of variables =        3

  Maximum number of calculations  =          1000
  Maximum Hessian update interval =            10
  Maximum step size               =   1.000000000
  Maximum parameter tolerance     =   0.000010000
  Maximum function  tolerance     =   0.000010000
  Maximum gradient  tolerance     =   0.001000000
  Maximum gradient  component     =   0.010000000

  Symmetry constrained optimisation

  Symmetry used for second derivatives

  Cell parameters to be optimised using strains

  Newton-Raphson optimiser to be used

  BFGS hessian update to be used

  Start of bulk optimisation :

  Cycle:      0 Energy:      -103.872682  Gnorm:      2.897018  CPU:    0.007
  ** Hessian calculated **
  Cycle:      1 Energy:      -104.025832  Gnorm:      0.044003  CPU:    0.014
  Cycle:      2 Energy:      -104.025887  Gnorm:      0.008455  CPU:    0.020


  **** Optimisation achieved ****


  Final energy =    -104.02588927 eV
  Final Gnorm  =       0.00036534

  Components of energy : 

--------------------------------------------------------------------------------
  Interatomic potentials     =          12.75344790 eV
  Monopole - monopole (real) =         -52.10425955 eV
  Monopole - monopole (recip)=         -64.67507761 eV
  Monopole - monopole (total)=        -116.77933716 eV
--------------------------------------------------------------------------------
  Total lattice energy       =        -104.02588927 eV
--------------------------------------------------------------------------------
  Total lattice energy       =          -10036.9081 kJ/(mole unit cells)
--------------------------------------------------------------------------------

  Final asymmetric unit coordinates :

--------------------------------------------------------------------------------
   No.  Atomic        x           y           z         Radius
        Label       (Frac)      (Frac)      (Frac)       (Angs) 
--------------------------------------------------------------------------------
     1  K     c     0.042000    0.250000    0.490600    0.000000
     2  Ca    c     0.000000    0.000000    0.000000    0.000000
     3  F     c     0.471500    0.250000    0.581200    0.000000
     4  F     c     0.291600    0.040400    0.206800    0.000000
     5  F     s     0.471500    0.250000    0.581200    0.000000
     6  F     s     0.291600    0.040400    0.206800    0.000000
--------------------------------------------------------------------------------

  Final Cartesian lattice vectors (Angstroms) :

        6.124222    0.000000    0.000000
        0.000000    8.499551    0.000000
        0.000000    0.000000    6.010060


  Final cell parameters and derivatives :

--------------------------------------------------------------------------------
       a            6.124222 Angstrom     dE/de1(xx)     0.000740 eV/strain
       b            8.499551 Angstrom     dE/de2(yy)     0.000389 eV/strain
       c            6.010060 Angstrom     dE/de3(zz)     0.000709 eV/strain
       alpha       90.000000 Degrees      dE/de4(yz)     0.000000 eV/strain
       beta        90.000000 Degrees      dE/de5(xz)     0.000000 eV/strain
       gamma       90.000000 Degrees      dE/de6(xy)     0.000000 eV/strain
--------------------------------------------------------------------------------

  Primitive cell volume =           312.842481 Angs**3

  Density of cell =      2.891370 g/cm**3

  Non-primitive cell volume =           312.842481 Angs**3


  Final internal derivatives :

--------------------------------------------------------------------------------
   No.  Atomic          a             b             c           Radius
        Label          (eV)          (eV)          (eV)        (eV/Angs)
--------------------------------------------------------------------------------
      1 K     c       0.000000      0.000000      0.000000      0.000000
      2 Ca    c       0.000000      0.000000      0.000000      0.000000
      3 F     c       0.000000      0.000000      0.000000      0.000000
      4 F     c       0.000000      0.000000      0.000000      0.000000
      5 F     s       0.000000      0.000000      0.000000      0.000000
      6 F     s       0.000000      0.000000      0.000000      0.000000
--------------------------------------------------------------------------------
  Maximum abs         0.000000      0.000000      0.000000      0.000000
--------------------------------------------------------------------------------


  Born effective charge tensors : 

-------------------------------------------------------------------------------
  Atom             x           y             z
-------------------------------------------------------------------------------
   1 K     x       1.0585      0.0000     -0.0261
           y       0.0000      1.0918      0.0000
           z      -0.0287      0.0000      1.0499
-------------------------------------------------------------------------------
   2 Ca    x       1.2692      0.0101     -0.0064
           y       0.0053      1.2434      0.0013
           z      -0.0015      0.0084      1.2686
-------------------------------------------------------------------------------
   3 F     x      -0.7636      0.0000      0.0117
           y       0.0000     -0.7812      0.0000
           z       0.0155      0.0000     -0.7443
-------------------------------------------------------------------------------
   4 F     x      -0.7820      0.0175     -0.0128
           y       0.0224     -0.7770     -0.0236
           z      -0.0117     -0.0247     -0.7871
-------------------------------------------------------------------------------




  Elastic Constant Matrix: (Units=GPa)

-------------------------------------------------------------------------------
  Indices      1         2         3         4         5         6    
-------------------------------------------------------------------------------
       1     71.9079   30.0988   35.5018    0.0000    0.0000    0.0000
       2     30.0988   79.9708   32.7046    0.0000    0.0000    0.0000
       3     35.5018   32.7046   74.7478    0.0000    0.0000    0.0000
       4      0.0000    0.0000    0.0000   22.1592    0.0000    0.0000
       5      0.0000    0.0000    0.0000    0.0000   23.0575    0.0000
       6      0.0000    0.0000    0.0000    0.0000    0.0000   25.6094
-------------------------------------------------------------------------------


  Elastic Compliance Matrix: (Units=1/GPa)

-------------------------------------------------------------------------------
  Indices      1         2         3         4         5         6    
-------------------------------------------------------------------------------
       1    0.019299 -0.004281 -0.007293  0.000000  0.000000  0.000000
       2   -0.004281  0.016179 -0.005046  0.000000  0.000000  0.000000
       3   -0.007293 -0.005046  0.019050  0.000000  0.000000  0.000000
       4    0.000000  0.000000  0.000000  0.045128  0.000000  0.000000
       5    0.000000  0.000000  0.000000  0.000000  0.043370  0.000000
       6    0.000000  0.000000  0.000000  0.000000  0.000000  0.039048
-------------------------------------------------------------------------------

  Mechanical properties :

-------------------------------------------------------------------------------
  Convention :                    Reuss         Voigt         Hill
-------------------------------------------------------------------------------
  Bulk  Modulus (GPa)     =      46.97340      47.02633      46.99987
  Shear Modulus (GPa)     =      22.48094      22.71999      22.60047
-------------------------------------------------------------------------------
  Velocity S-wave (km/s)  =       2.78840       2.80319       2.79581
  Velocity P-wave (km/s)  =       5.15878       5.17122       5.16500
-------------------------------------------------------------------------------
  Compressibility (1/GPa) =    0.02128864
-------------------------------------------------------------------------------
  Stress axis :                     x             y             z
-------------------------------------------------------------------------------
  Youngs Moduli (GPa)     =      51.81509      61.80737      52.49376
-------------------------------------------------------------------------------
  Poissons Ratio (x)      =                     0.26461       0.38285
  Poissons Ratio (y)      =       0.22183                     0.26486
  Poissons Ratio (z)      =       0.37790       0.31186
-------------------------------------------------------------------------------


  Piezoelectric Strain Matrix: (Units=C/m**2)

-------------------------------------------------------------------------------
  Indices      1         2         3         4         5         6    
-------------------------------------------------------------------------------
       x     0.00000   0.00000   0.00000   0.00000   0.00000   0.00000
       y     0.00000   0.00000   0.00000   0.00000   0.00000   0.00000
       z     0.00000   0.00000   0.00000   0.00000   0.00000   0.00000
-------------------------------------------------------------------------------


  Piezoelectric Stress Matrix: (Units=10**-11 C/N)

-------------------------------------------------------------------------------
  Indices      1         2         3         4         5         6    
-------------------------------------------------------------------------------
       x     0.00000   0.00000   0.00000   0.00000   0.00000   0.00000
       y     0.00000   0.00000   0.00000   0.00000   0.00000   0.00000
       z     0.00000   0.00000   0.00000   0.00000   0.00000   0.00000
-------------------------------------------------------------------------------


  Static dielectric constant tensor : 

-------------------------------------------------------------------------------
              x         y         z
-------------------------------------------------------------------------------
       x     4.35430   0.00000   0.00000
       y     0.00000   5.36911   0.00000
       z     0.00000   0.00000   4.09555
--------------------------------------------------------------------------------

  High frequency dielectric constant tensor : 

-------------------------------------------------------------------------------
              x         y         z
-------------------------------------------------------------------------------
       x     1.53135   0.00000   0.00000
       y     0.00000   1.53286   0.00000
       z     0.00000   0.00000   1.52942
-------------------------------------------------------------------------------

  Static refractive indices : 

-------------------------------------------------------------------------------
    1 =    2.02375      2 =    2.08670      3 =    2.31713
-------------------------------------------------------------------------------

  High frequency refractive indices : 

-------------------------------------------------------------------------------
    1 =    1.23670      2 =    1.23748      3 =    1.23809
-------------------------------------------------------------------------------


  Time to end of optimisation =       0.0433 seconds


  Peak dynamic memory used =       0.73 MB 


  Timing analysis for GULP :

--------------------------------------------------------------------------------
  Task / Subroutine                                          Time (Seconds)
--------------------------------------------------------------------------------
  Calculation of reciprocal space energy and derivatives          0.0026
  Calculation of reciprocal space energy using symmetry           0.0030
  Calculation of real space energy and derivatives                0.0132
  Calculation of real space energy using symmetry                 0.0199
  Symmetry generation of equivalent positions                     0.0004
--------------------------------------------------------------------------------
  Total CPU time                                                  0.0433
--------------------------------------------------------------------------------


  CIF file written as perov.cif                                               


  Job Finished at 09:36.00  6th April      2017                               

