********************************************************************************
*                       GENERAL UTILITY LATTICE PROGRAM                        *
*                                 Julian Gale                                  *
*                      Nanochemistry Research Institute                        *
*                           Department of Chemistry                            *
*                    Curtin University, Western Australia                      *
********************************************************************************
* Version = 4.3.2 * Last modified =  3rd March 2015                            *
********************************************************************************
*  optimise     - perform optimisation run                                     *
*  cell_only    - only optimise unit cell                                      *
*  property     - calculate properties for final geometry                      *
********************************************************************************

  Job Started  at 09:36.03  6th April      2017                               

  Number of CPUs =     1


  Total number of configurations input =   1

********************************************************************************
*  Input for Configuration =   1                                               *
********************************************************************************

  Formula = K4Ca4F12                                                    

  Number of irreducible atoms/shells =       6


  Total number atoms/shells =      32

  Dimensionality = 3               :  Bulk   


  Symmetry :

  Crystal family                   :  Orthorhombic
  Crystal class  (Groth - 1921)    :  Orthorhombic Bipyramidal             

  Space group (centrosymmetric)    :  P N M A         

  Patterson group                  :  P m m m  

  Cartesian lattice vectors (Angstroms) :

        6.223500    0.000000    0.000000
        0.000000    8.710300    0.000000
        0.000000    0.000000    6.118000

  Cell parameters (Angstroms/Degrees):

  a =       6.2235    alpha =  90.0000
  b =       8.7103    beta  =  90.0000
  c =       6.1180    gamma =  90.0000

  Initial cell volume =         331.647921 Angs**3

  Temperature of configuration =  0.000     K 

  Pressure of configuration =         0.000 GPa 

  Fractional coordinates of asymmetric unit :

--------------------------------------------------------------------------------
   No.  Atomic       x           y          z         Charge      Occupancy
        Label      (Frac)      (Frac)     (Frac)        (e)         (Frac)  
--------------------------------------------------------------------------------
      1 K     c    0.042000    0.250000    0.490600     1.40000    1.000000    
      2 Ca    c    0.000000    0.000000    0.000000     2.00000    1.000000    
      3 F     c    0.471500    0.250000    0.581200     0.37800    1.000000    
      4 F     c    0.291600    0.040400    0.206800     0.37800    1.000000    
      5 F     s    0.471500    0.250000    0.581200    -1.51133    1.000000    
      6 F     s    0.291600    0.040400    0.206800    -1.51133    1.000000    
--------------------------------------------------------------------------------



********************************************************************************
*  General input information                                                   *
********************************************************************************

  Species output for all configurations : 

--------------------------------------------------------------------------------
  Species    Type    Atomic    Atomic    Charge       Radii (Angs)     Library
                     Number     Mass       (e)     Cova   Ionic  VDW   Symbol
--------------------------------------------------------------------------------
    K        Core       19      39.10   1.400000   1.330  0.000  2.800          
    Ca       Core       20      40.08   2.000000   0.990  0.000  2.750          
    F        Core        9      19.00   0.378000   0.710  0.000  1.300          
    F        Shell       9       0.00  -1.511333   0.710  0.000  1.300          
--------------------------------------------------------------------------------


  Lattice summation method               =    Ewald          (3-D)
                                         =    Parry          (2-D)
                                         =    Saunders et al (1-D)
  Accuracy factor for lattice sums       =   12.000


  Time limit = Infinity

  Maximum range for interatomic potentials =    100000.000000 Angstroms

  General interatomic potentials :

--------------------------------------------------------------------------------
Atom  Types   Potential         A         B         C         D     Cutoffs(Ang)
  1     2                                                            Min    Max 
--------------------------------------------------------------------------------
K    c K    c Buckingham    0.219E+04 0.192      0.00      0.00     0.000 10.000
Ca   c F    s Buckingham    0.148E+04 0.266      0.00      0.00     0.000 10.000
F    s F    s Buckingham     912.     0.271      13.8      0.00     0.000 10.000
K    c F    s Buckingham    0.352E+04 0.267      0.00      0.00     0.000 10.000
F    c F    s Spring (c-s)   29.3      0.00      0.00      0.00     0.000  0.800
--------------------------------------------------------------------------------

********************************************************************************
*  Output for configuration   1                                                *
********************************************************************************


  Components of energy : 

--------------------------------------------------------------------------------
  Interatomic potentials     =          10.66009013 eV
  Monopole - monopole (real) =         -88.09415493 eV
  Monopole - monopole (recip)=        -108.95245009 eV
  Monopole - monopole (total)=        -197.04660501 eV
--------------------------------------------------------------------------------
  Total lattice energy       =        -186.38651488 eV
--------------------------------------------------------------------------------
  Total lattice energy       =          -17983.4495 kJ/(mole unit cells)
--------------------------------------------------------------------------------


  Number of variables =        3

  Maximum number of calculations  =          1000
  Maximum Hessian update interval =            10
  Maximum step size               =   1.000000000
  Maximum parameter tolerance     =   0.000010000
  Maximum function  tolerance     =   0.000010000
  Maximum gradient  tolerance     =   0.001000000
  Maximum gradient  component     =   0.010000000

  Symmetry constrained optimisation

  Symmetry used for second derivatives

  Cell parameters to be optimised using strains

  Newton-Raphson optimiser to be used

  BFGS hessian update to be used

  Start of bulk optimisation :

  Cycle:      0 Energy:      -186.386515  Gnorm:     18.772976  CPU:    0.007
  ** Hessian calculated **
  Cycle:      1 Energy:      -191.069827  Gnorm:      8.283113  CPU:    0.013
  Cycle:      2 Energy:      -191.841056  Gnorm:      0.331131  CPU:    0.018
  Cycle:      3 Energy:      -191.843292  Gnorm:      0.106328  CPU:    0.027
  Cycle:      4 Energy:      -191.843397  Gnorm:      0.019936  CPU:    0.032


  **** Optimisation achieved ****


  Final energy =    -191.84340124 eV
  Final Gnorm  =       0.00027123

  Components of energy : 

--------------------------------------------------------------------------------
  Interatomic potentials     =          25.62665983 eV
  Monopole - monopole (real) =         -97.22089065 eV
  Monopole - monopole (recip)=        -120.24917041 eV
  Monopole - monopole (total)=        -217.47006107 eV
--------------------------------------------------------------------------------
  Total lattice energy       =        -191.84340124 eV
--------------------------------------------------------------------------------
  Total lattice energy       =          -18509.9556 kJ/(mole unit cells)
--------------------------------------------------------------------------------

  Final asymmetric unit coordinates :

--------------------------------------------------------------------------------
   No.  Atomic        x           y           z         Radius
        Label       (Frac)      (Frac)      (Frac)       (Angs) 
--------------------------------------------------------------------------------
     1  K     c     0.042000    0.250000    0.490600    0.000000
     2  Ca    c     0.000000    0.000000    0.000000    0.000000
     3  F     c     0.471500    0.250000    0.581200    0.000000
     4  F     c     0.291600    0.040400    0.206800    0.000000
     5  F     s     0.471500    0.250000    0.581200    0.000000
     6  F     s     0.291600    0.040400    0.206800    0.000000
--------------------------------------------------------------------------------

  Final Cartesian lattice vectors (Angstroms) :

        5.660191    0.000000    0.000000
        0.000000    7.849417    0.000000
        0.000000    0.000000    5.552306


  Final cell parameters and derivatives :

--------------------------------------------------------------------------------
       a            5.660191 Angstrom     dE/de1(xx)    -0.000556 eV/strain
       b            7.849417 Angstrom     dE/de2(yy)    -0.000053 eV/strain
       c            5.552306 Angstrom     dE/de3(zz)     0.000592 eV/strain
       alpha       90.000000 Degrees      dE/de4(yz)     0.000000 eV/strain
       beta        90.000000 Degrees      dE/de5(xz)     0.000000 eV/strain
       gamma       90.000000 Degrees      dE/de6(xy)     0.000000 eV/strain
--------------------------------------------------------------------------------

  Primitive cell volume =           246.684508 Angs**3

  Density of cell =      3.666802 g/cm**3

  Non-primitive cell volume =           246.684508 Angs**3


  Final internal derivatives :

--------------------------------------------------------------------------------
   No.  Atomic          a             b             c           Radius
        Label          (eV)          (eV)          (eV)        (eV/Angs)
--------------------------------------------------------------------------------
      1 K     c       0.000000      0.000000      0.000000      0.000000
      2 Ca    c       0.000000      0.000000      0.000000      0.000000
      3 F     c       0.000000      0.000000      0.000000      0.000000
      4 F     c       0.000000      0.000000      0.000000      0.000000
      5 F     s       0.000000      0.000000      0.000000      0.000000
      6 F     s       0.000000      0.000000      0.000000      0.000000
--------------------------------------------------------------------------------
  Maximum abs         0.000000      0.000000      0.000000      0.000000
--------------------------------------------------------------------------------


  Born effective charge tensors : 

-------------------------------------------------------------------------------
  Atom             x           y             z
-------------------------------------------------------------------------------
   1 K     x       1.2986      0.0000     -0.0432
           y       0.0000      1.3506      0.0000
           z      -0.0481      0.0000      1.2862
-------------------------------------------------------------------------------
   2 Ca    x       1.7217      0.0143     -0.0187
           y       0.0040      1.6827     -0.0086
           z       0.0031      0.0203      1.7217
-------------------------------------------------------------------------------
   3 F     x      -0.9570      0.0000      0.0204
           y       0.0000     -1.0804      0.0000
           z       0.0326      0.0000     -0.9316
-------------------------------------------------------------------------------
   4 F     x      -1.0317      0.0242     -0.0663
           y       0.0323     -0.9765     -0.0303
           z      -0.0643     -0.0315     -1.0382
-------------------------------------------------------------------------------




  Elastic Constant Matrix: (Units=GPa)

-------------------------------------------------------------------------------
  Indices      1         2         3         4         5         6    
-------------------------------------------------------------------------------
       1    156.7038   68.0893   66.3231    0.0000    0.0000    0.0000
       2     68.0893  163.7625   73.6923    0.0000    0.0000    0.0000
       3     66.3231   73.6923  169.1081    0.0000    0.0000    0.0000
       4      0.0000    0.0000    0.0000   55.8872    0.0000    0.0000
       5      0.0000    0.0000    0.0000    0.0000   42.6210    0.0000
       6      0.0000    0.0000    0.0000    0.0000    0.0000   63.3184
-------------------------------------------------------------------------------


  Elastic Compliance Matrix: (Units=1/GPa)

-------------------------------------------------------------------------------
  Indices      1         2         3         4         5         6    
-------------------------------------------------------------------------------
       1    0.008401 -0.002501 -0.002205  0.000000  0.000000  0.000000
       2   -0.002501  0.008340 -0.002654  0.000000  0.000000  0.000000
       3   -0.002205 -0.002654  0.007935  0.000000  0.000000  0.000000
       4    0.000000  0.000000  0.000000  0.017893  0.000000  0.000000
       5    0.000000  0.000000  0.000000  0.000000  0.023463  0.000000
       6    0.000000  0.000000  0.000000  0.000000  0.000000  0.015793
-------------------------------------------------------------------------------

  Mechanical properties :

-------------------------------------------------------------------------------
  Convention :                    Reuss         Voigt         Hill
-------------------------------------------------------------------------------
  Bulk  Modulus (GPa)     =     100.43172     100.64267     100.53719
  Shear Modulus (GPa)     =      50.06823      51.12999      50.59911
-------------------------------------------------------------------------------
  Velocity S-wave (km/s)  =       3.69520       3.73417       3.71473
  Velocity P-wave (km/s)  =       6.75244       6.78521       6.76884
-------------------------------------------------------------------------------
  Compressibility (1/GPa) =    0.00995701
-------------------------------------------------------------------------------
  Stress axis :                     x             y             z
-------------------------------------------------------------------------------
  Youngs Moduli (GPa)     =     119.02745     119.89927     126.02982
-------------------------------------------------------------------------------
  Poissons Ratio (x)      =                     0.29985       0.27792
  Poissons Ratio (y)      =       0.29767                     0.33444
  Poissons Ratio (z)      =       0.26248       0.31817
-------------------------------------------------------------------------------


  Piezoelectric Strain Matrix: (Units=C/m**2)

-------------------------------------------------------------------------------
  Indices      1         2         3         4         5         6    
-------------------------------------------------------------------------------
       x     0.00000   0.00000   0.00000   0.00000   0.00000   0.00000
       y     0.00000   0.00000   0.00000   0.00000   0.00000   0.00000
       z     0.00000   0.00000   0.00000   0.00000   0.00000   0.00000
-------------------------------------------------------------------------------


  Piezoelectric Stress Matrix: (Units=10**-11 C/N)

-------------------------------------------------------------------------------
  Indices      1         2         3         4         5         6    
-------------------------------------------------------------------------------
       x     0.00000   0.00000   0.00000   0.00000   0.00000   0.00000
       y     0.00000   0.00000   0.00000   0.00000   0.00000   0.00000
       z     0.00000   0.00000   0.00000   0.00000   0.00000   0.00000
-------------------------------------------------------------------------------


  Static dielectric constant tensor : 

-------------------------------------------------------------------------------
              x         y         z
-------------------------------------------------------------------------------
       x     4.63894   0.00000   0.00000
       y     0.00000   5.17308   0.00000
       z     0.00000   0.00000   4.39413
--------------------------------------------------------------------------------

  High frequency dielectric constant tensor : 

-------------------------------------------------------------------------------
              x         y         z
-------------------------------------------------------------------------------
       x     1.66813   0.00000   0.00000
       y     0.00000   1.67069   0.00000
       z     0.00000   0.00000   1.66546
-------------------------------------------------------------------------------

  Static refractive indices : 

-------------------------------------------------------------------------------
    1 =    2.09622      2 =    2.15382      3 =    2.27444
-------------------------------------------------------------------------------

  High frequency refractive indices : 

-------------------------------------------------------------------------------
    1 =    1.29053      2 =    1.29156      3 =    1.29255
-------------------------------------------------------------------------------


  Time to end of optimisation =       0.0553 seconds


  Peak dynamic memory used =       0.73 MB 


  Timing analysis for GULP :

--------------------------------------------------------------------------------
  Task / Subroutine                                          Time (Seconds)
--------------------------------------------------------------------------------
  Calculation of reciprocal space energy and derivatives          0.0026
  Calculation of reciprocal space energy using symmetry           0.0045
  Calculation of real space energy and derivatives                0.0130
  Calculation of real space energy using symmetry                 0.0307
  Symmetry generation of equivalent positions                     0.0004
--------------------------------------------------------------------------------
  Total CPU time                                                  0.0553
--------------------------------------------------------------------------------


  CIF file written as perov.cif                                               


  Job Finished at 09:36.03  6th April      2017                               

