********************************************************************************
*                       GENERAL UTILITY LATTICE PROGRAM                        *
*                                 Julian Gale                                  *
*                      Nanochemistry Research Institute                        *
*                           Department of Chemistry                            *
*                    Curtin University, Western Australia                      *
********************************************************************************
* Version = 4.3.2 * Last modified =  3rd March 2015                            *
********************************************************************************
*  optimise     - perform optimisation run                                     *
*  cell_only    - only optimise unit cell                                      *
*  property     - calculate properties for final geometry                      *
********************************************************************************

  Job Started  at 09:35.58  6th April      2017                               

  Number of CPUs =     1


  Total number of configurations input =   1

********************************************************************************
*  Input for Configuration =   1                                               *
********************************************************************************

  Formula = K4Ca4F12                                                    

  Number of irreducible atoms/shells =       6


  Total number atoms/shells =      32

  Dimensionality = 3               :  Bulk   


  Symmetry :

  Crystal family                   :  Orthorhombic
  Crystal class  (Groth - 1921)    :  Orthorhombic Bipyramidal             

  Space group (centrosymmetric)    :  P N M A         

  Patterson group                  :  P m m m  

  Cartesian lattice vectors (Angstroms) :

        6.223500    0.000000    0.000000
        0.000000    8.710300    0.000000
        0.000000    0.000000    6.118000

  Cell parameters (Angstroms/Degrees):

  a =       6.2235    alpha =  90.0000
  b =       8.7103    beta  =  90.0000
  c =       6.1180    gamma =  90.0000

  Initial cell volume =         331.647921 Angs**3

  Temperature of configuration =  0.000     K 

  Pressure of configuration =         0.000 GPa 

  Fractional coordinates of asymmetric unit :

--------------------------------------------------------------------------------
   No.  Atomic       x           y          z         Charge      Occupancy
        Label      (Frac)      (Frac)     (Frac)        (e)         (Frac)  
--------------------------------------------------------------------------------
      1 K     c    0.042000    0.250000    0.490600     0.80000    1.000000    
      2 Ca    c    0.000000    0.000000    0.000000     1.70000    1.000000    
      3 F     c    0.471500    0.250000    0.581200     0.37800    1.000000    
      4 F     c    0.291600    0.040400    0.206800     0.37800    1.000000    
      5 F     s    0.471500    0.250000    0.581200    -1.21133    1.000000    
      6 F     s    0.291600    0.040400    0.206800    -1.21133    1.000000    
--------------------------------------------------------------------------------



********************************************************************************
*  General input information                                                   *
********************************************************************************

  Species output for all configurations : 

--------------------------------------------------------------------------------
  Species    Type    Atomic    Atomic    Charge       Radii (Angs)     Library
                     Number     Mass       (e)     Cova   Ionic  VDW   Symbol
--------------------------------------------------------------------------------
    K        Core       19      39.10   0.800000   1.330  0.000  2.800          
    Ca       Core       20      40.08   1.700000   0.990  0.000  2.750          
    F        Core        9      19.00   0.378000   0.710  0.000  1.300          
    F        Shell       9       0.00  -1.211333   0.710  0.000  1.300          
--------------------------------------------------------------------------------


  Lattice summation method               =    Ewald          (3-D)
                                         =    Parry          (2-D)
                                         =    Saunders et al (1-D)
  Accuracy factor for lattice sums       =   12.000


  Time limit = Infinity

  Maximum range for interatomic potentials =    100000.000000 Angstroms

  General interatomic potentials :

--------------------------------------------------------------------------------
Atom  Types   Potential         A         B         C         D     Cutoffs(Ang)
  1     2                                                            Min    Max 
--------------------------------------------------------------------------------
K    c K    c Buckingham    0.219E+04 0.192      0.00      0.00     0.000 10.000
Ca   c F    s Buckingham    0.148E+04 0.266      0.00      0.00     0.000 10.000
F    s F    s Buckingham     912.     0.271      13.8      0.00     0.000 10.000
K    c F    s Buckingham    0.352E+04 0.267      0.00      0.00     0.000 10.000
F    c F    s Spring (c-s)   18.8      0.00      0.00      0.00     0.000  0.800
--------------------------------------------------------------------------------

********************************************************************************
*  Output for configuration   1                                                *
********************************************************************************


  Components of energy : 

--------------------------------------------------------------------------------
  Interatomic potentials     =          10.66009013 eV
  Monopole - monopole (real) =         -51.03066689 eV
  Monopole - monopole (recip)=         -62.31396801 eV
  Monopole - monopole (total)=        -113.34463490 eV
--------------------------------------------------------------------------------
  Total lattice energy       =        -102.68454477 eV
--------------------------------------------------------------------------------
  Total lattice energy       =           -9907.4889 kJ/(mole unit cells)
--------------------------------------------------------------------------------


  Number of variables =        3

  Maximum number of calculations  =          1000
  Maximum Hessian update interval =            10
  Maximum step size               =   1.000000000
  Maximum parameter tolerance     =   0.000010000
  Maximum function  tolerance     =   0.000010000
  Maximum gradient  tolerance     =   0.001000000
  Maximum gradient  component     =   0.010000000

  Symmetry constrained optimisation

  Symmetry used for second derivatives

  Cell parameters to be optimised using strains

  Newton-Raphson optimiser to be used

  BFGS hessian update to be used

  Start of bulk optimisation :

  Cycle:      0 Energy:      -102.684545  Gnorm:      2.668178  CPU:    0.007
  ** Hessian calculated **
  Cycle:      1 Energy:      -102.815120  Gnorm:      0.038195  CPU:    0.014
  Cycle:      2 Energy:      -102.815168  Gnorm:      0.007665  CPU:    0.020


  **** Optimisation achieved ****


  Final energy =    -102.81517045 eV
  Final Gnorm  =       0.00025150

  Components of energy : 

--------------------------------------------------------------------------------
  Interatomic potentials     =          12.58480153 eV
  Monopole - monopole (real) =         -51.95378107 eV
  Monopole - monopole (recip)=         -63.44619090 eV
  Monopole - monopole (total)=        -115.39997198 eV
--------------------------------------------------------------------------------
  Total lattice energy       =        -102.81517045 eV
--------------------------------------------------------------------------------
  Total lattice energy       =           -9920.0923 kJ/(mole unit cells)
--------------------------------------------------------------------------------

  Final asymmetric unit coordinates :

--------------------------------------------------------------------------------
   No.  Atomic        x           y           z         Radius
        Label       (Frac)      (Frac)      (Frac)       (Angs) 
--------------------------------------------------------------------------------
     1  K     c     0.042000    0.250000    0.490600    0.000000
     2  Ca    c     0.000000    0.000000    0.000000    0.000000
     3  F     c     0.471500    0.250000    0.581200    0.000000
     4  F     c     0.291600    0.040400    0.206800    0.000000
     5  F     s     0.471500    0.250000    0.581200    0.000000
     6  F     s     0.291600    0.040400    0.206800    0.000000
--------------------------------------------------------------------------------

  Final Cartesian lattice vectors (Angstroms) :

        6.130918    0.000000    0.000000
        0.000000    8.510539    0.000000
        0.000000    0.000000    6.021870


  Final cell parameters and derivatives :

--------------------------------------------------------------------------------
       a            6.130918 Angstrom     dE/de1(xx)     0.000485 eV/strain
       b            8.510539 Angstrom     dE/de2(yy)     0.000331 eV/strain
       c            6.021870 Angstrom     dE/de3(zz)     0.000474 eV/strain
       alpha       90.000000 Degrees      dE/de4(yz)     0.000000 eV/strain
       beta        90.000000 Degrees      dE/de5(xz)     0.000000 eV/strain
       gamma       90.000000 Degrees      dE/de6(xy)     0.000000 eV/strain
--------------------------------------------------------------------------------

  Primitive cell volume =           314.205601 Angs**3

  Density of cell =      2.878826 g/cm**3

  Non-primitive cell volume =           314.205601 Angs**3


  Final internal derivatives :

--------------------------------------------------------------------------------
   No.  Atomic          a             b             c           Radius
        Label          (eV)          (eV)          (eV)        (eV/Angs)
--------------------------------------------------------------------------------
      1 K     c       0.000000      0.000000      0.000000      0.000000
      2 Ca    c       0.000000      0.000000      0.000000      0.000000
      3 F     c       0.000000      0.000000      0.000000      0.000000
      4 F     c       0.000000      0.000000      0.000000      0.000000
      5 F     s       0.000000      0.000000      0.000000      0.000000
      6 F     s       0.000000      0.000000      0.000000      0.000000
--------------------------------------------------------------------------------
  Maximum abs         0.000000      0.000000      0.000000      0.000000
--------------------------------------------------------------------------------


  Born effective charge tensors : 

-------------------------------------------------------------------------------
  Atom             x           y             z
-------------------------------------------------------------------------------
   1 K     x       0.7041      0.0000     -0.0343
           y       0.0000      0.7382      0.0000
           z      -0.0345      0.0000      0.6956
-------------------------------------------------------------------------------
   2 Ca    x       1.5132      0.0084     -0.0166
           y       0.0006      1.4851     -0.0078
           z       0.0037      0.0167      1.5140
-------------------------------------------------------------------------------
   3 F     x      -0.6869      0.0000      0.0194
           y       0.0000     -0.8254      0.0000
           z       0.0283      0.0000     -0.6673
-------------------------------------------------------------------------------
   4 F     x      -0.7652      0.0184     -0.0751
           y       0.0221     -0.6990     -0.0175
           z      -0.0738     -0.0174     -0.7711
-------------------------------------------------------------------------------




  Elastic Constant Matrix: (Units=GPa)

-------------------------------------------------------------------------------
  Indices      1         2         3         4         5         6    
-------------------------------------------------------------------------------
       1     70.2483   30.5255   34.4929    0.0000    0.0000    0.0000
       2     30.5255   75.7956   34.2899    0.0000    0.0000    0.0000
       3     34.4929   34.2899   71.9989    0.0000    0.0000    0.0000
       4      0.0000    0.0000    0.0000   21.9408    0.0000    0.0000
       5      0.0000    0.0000    0.0000    0.0000   19.6583    0.0000
       6      0.0000    0.0000    0.0000    0.0000    0.0000   25.8741
-------------------------------------------------------------------------------


  Elastic Compliance Matrix: (Units=1/GPa)

-------------------------------------------------------------------------------
  Indices      1         2         3         4         5         6    
-------------------------------------------------------------------------------
       1    0.019849 -0.004706 -0.007268  0.000000  0.000000  0.000000
       2   -0.004706  0.017932 -0.006286  0.000000  0.000000  0.000000
       3   -0.007268 -0.006286  0.020365  0.000000  0.000000  0.000000
       4    0.000000  0.000000  0.000000  0.045577  0.000000  0.000000
       5    0.000000  0.000000  0.000000  0.000000  0.050869  0.000000
       6    0.000000  0.000000  0.000000  0.000000  0.000000  0.038649
-------------------------------------------------------------------------------

  Mechanical properties :

-------------------------------------------------------------------------------
  Convention :                    Reuss         Voigt         Hill
-------------------------------------------------------------------------------
  Bulk  Modulus (GPa)     =      46.23957      46.29549      46.26753
  Shear Modulus (GPa)     =      21.09983      21.41027      21.25505
-------------------------------------------------------------------------------
  Velocity S-wave (km/s)  =       2.70727       2.72711       2.71721
  Velocity P-wave (km/s)  =       5.08275       5.09878       5.09077
-------------------------------------------------------------------------------
  Compressibility (1/GPa) =    0.02162650
-------------------------------------------------------------------------------
  Stress axis :                     x             y             z
-------------------------------------------------------------------------------
  Youngs Moduli (GPa)     =      50.38119      55.76527      49.10463
-------------------------------------------------------------------------------
  Poissons Ratio (x)      =                     0.26242       0.35689
  Poissons Ratio (y)      =       0.23708                     0.30867
  Poissons Ratio (z)      =       0.36616       0.35054
-------------------------------------------------------------------------------


  Piezoelectric Strain Matrix: (Units=C/m**2)

-------------------------------------------------------------------------------
  Indices      1         2         3         4         5         6    
-------------------------------------------------------------------------------
       x     0.00000   0.00000   0.00000   0.00000   0.00000   0.00000
       y     0.00000   0.00000   0.00000   0.00000   0.00000   0.00000
       z     0.00000   0.00000   0.00000   0.00000   0.00000   0.00000
-------------------------------------------------------------------------------


  Piezoelectric Stress Matrix: (Units=10**-11 C/N)

-------------------------------------------------------------------------------
  Indices      1         2         3         4         5         6    
-------------------------------------------------------------------------------
       x     0.00000   0.00000   0.00000   0.00000   0.00000   0.00000
       y     0.00000   0.00000   0.00000   0.00000   0.00000   0.00000
       z     0.00000   0.00000   0.00000   0.00000   0.00000   0.00000
-------------------------------------------------------------------------------


  Static dielectric constant tensor : 

-------------------------------------------------------------------------------
              x         y         z
-------------------------------------------------------------------------------
       x     3.61245   0.00000   0.00000
       y     0.00000   3.70503   0.00000
       z     0.00000   0.00000   3.39745
--------------------------------------------------------------------------------

  High frequency dielectric constant tensor : 

-------------------------------------------------------------------------------
              x         y         z
-------------------------------------------------------------------------------
       x     1.52749   0.00000   0.00000
       y     0.00000   1.52876   0.00000
       z     0.00000   0.00000   1.52568
-------------------------------------------------------------------------------

  Static refractive indices : 

-------------------------------------------------------------------------------
    1 =    1.84322      2 =    1.90064      3 =    1.92484
-------------------------------------------------------------------------------

  High frequency refractive indices : 

-------------------------------------------------------------------------------
    1 =    1.23518      2 =    1.23592      3 =    1.23643
-------------------------------------------------------------------------------


  Time to end of optimisation =       0.0431 seconds


  Peak dynamic memory used =       0.73 MB 


  Timing analysis for GULP :

--------------------------------------------------------------------------------
  Task / Subroutine                                          Time (Seconds)
--------------------------------------------------------------------------------
  Calculation of reciprocal space energy and derivatives          0.0026
  Calculation of reciprocal space energy using symmetry           0.0031
  Calculation of real space energy and derivatives                0.0129
  Calculation of real space energy using symmetry                 0.0200
  Symmetry generation of equivalent positions                     0.0004
--------------------------------------------------------------------------------
  Total CPU time                                                  0.0431
--------------------------------------------------------------------------------


  CIF file written as perov.cif                                               


  Job Finished at 09:35.58  6th April      2017                               

