********************************************************************************
*                       GENERAL UTILITY LATTICE PROGRAM                        *
*                                 Julian Gale                                  *
*                      Nanochemistry Research Institute                        *
*                           Department of Chemistry                            *
*                    Curtin University, Western Australia                      *
********************************************************************************
* Version = 4.3.2 * Last modified =  3rd March 2015                            *
********************************************************************************
*  optimise     - perform optimisation run                                     *
*  cell_only    - only optimise unit cell                                      *
*  property     - calculate properties for final geometry                      *
********************************************************************************

  Job Started  at 09:35.58  6th April      2017                               

  Number of CPUs =     1


  Total number of configurations input =   1

********************************************************************************
*  Input for Configuration =   1                                               *
********************************************************************************

  Formula = K4Ca4F12                                                    

  Number of irreducible atoms/shells =       6


  Total number atoms/shells =      32

  Dimensionality = 3               :  Bulk   


  Symmetry :

  Crystal family                   :  Orthorhombic
  Crystal class  (Groth - 1921)    :  Orthorhombic Bipyramidal             

  Space group (centrosymmetric)    :  P N M A         

  Patterson group                  :  P m m m  

  Cartesian lattice vectors (Angstroms) :

        6.223500    0.000000    0.000000
        0.000000    8.710300    0.000000
        0.000000    0.000000    6.118000

  Cell parameters (Angstroms/Degrees):

  a =       6.2235    alpha =  90.0000
  b =       8.7103    beta  =  90.0000
  c =       6.1180    gamma =  90.0000

  Initial cell volume =         331.647921 Angs**3

  Temperature of configuration =  0.000     K 

  Pressure of configuration =         0.000 GPa 

  Fractional coordinates of asymmetric unit :

--------------------------------------------------------------------------------
   No.  Atomic       x           y          z         Charge      Occupancy
        Label      (Frac)      (Frac)     (Frac)        (e)         (Frac)  
--------------------------------------------------------------------------------
      1 K     c    0.042000    0.250000    0.490600     0.70000    1.000000    
      2 Ca    c    0.000000    0.000000    0.000000     1.50000    1.000000    
      3 F     c    0.471500    0.250000    0.581200     0.37800    1.000000    
      4 F     c    0.291600    0.040400    0.206800     0.37800    1.000000    
      5 F     s    0.471500    0.250000    0.581200    -1.11133    1.000000    
      6 F     s    0.291600    0.040400    0.206800    -1.11133    1.000000    
--------------------------------------------------------------------------------



********************************************************************************
*  General input information                                                   *
********************************************************************************

  Species output for all configurations : 

--------------------------------------------------------------------------------
  Species    Type    Atomic    Atomic    Charge       Radii (Angs)     Library
                     Number     Mass       (e)     Cova   Ionic  VDW   Symbol
--------------------------------------------------------------------------------
    K        Core       19      39.10   0.700000   1.330  0.000  2.800          
    Ca       Core       20      40.08   1.500000   0.990  0.000  2.750          
    F        Core        9      19.00   0.378000   0.710  0.000  1.300          
    F        Shell       9       0.00  -1.111333   0.710  0.000  1.300          
--------------------------------------------------------------------------------


  Lattice summation method               =    Ewald          (3-D)
                                         =    Parry          (2-D)
                                         =    Saunders et al (1-D)
  Accuracy factor for lattice sums       =   12.000


  Time limit = Infinity

  Maximum range for interatomic potentials =    100000.000000 Angstroms

  General interatomic potentials :

--------------------------------------------------------------------------------
Atom  Types   Potential         A         B         C         D     Cutoffs(Ang)
  1     2                                                            Min    Max 
--------------------------------------------------------------------------------
K    c K    c Buckingham    0.219E+04 0.192      0.00      0.00     0.000 10.000
Ca   c F    s Buckingham    0.148E+04 0.266      0.00      0.00     0.000 10.000
F    s F    s Buckingham     912.     0.271      13.8      0.00     0.000 10.000
K    c F    s Buckingham    0.352E+04 0.267      0.00      0.00     0.000 10.000
F    c F    s Spring (c-s)   15.8      0.00      0.00      0.00     0.000  0.800
--------------------------------------------------------------------------------

********************************************************************************
*  Output for configuration   1                                                *
********************************************************************************


  Components of energy : 

--------------------------------------------------------------------------------
  Interatomic potentials     =          10.66009013 eV
  Monopole - monopole (real) =         -39.57476647 eV
  Monopole - monopole (recip)=         -48.32604203 eV
  Monopole - monopole (total)=         -87.90080850 eV
--------------------------------------------------------------------------------
  Total lattice energy       =         -77.24071837 eV
--------------------------------------------------------------------------------
  Total lattice energy       =           -7452.5486 kJ/(mole unit cells)
--------------------------------------------------------------------------------


  Number of variables =        3

  Maximum number of calculations  =          1000
  Maximum Hessian update interval =            10
  Maximum step size               =   1.000000000
  Maximum parameter tolerance     =   0.000010000
  Maximum function  tolerance     =   0.000010000
  Maximum gradient  tolerance     =   0.001000000
  Maximum gradient  component     =   0.010000000

  Symmetry constrained optimisation

  Symmetry used for second derivatives

  Cell parameters to be optimised using strains

  Newton-Raphson optimiser to be used

  BFGS hessian update to be used

  Start of bulk optimisation :

  Cycle:      0 Energy:       -77.240718  Gnorm:      2.245820  CPU:    0.007
  ** Hessian calculated **
  Cycle:      1 Energy:       -77.337020  Gnorm:      0.038230  CPU:    0.014
  Cycle:      2 Energy:       -77.337058  Gnorm:      0.001033  CPU:    0.019


  **** Optimisation achieved ****


  Final energy =     -77.33705769 eV
  Final Gnorm  =       0.00000703

  Components of energy : 

--------------------------------------------------------------------------------
  Interatomic potentials     =           9.10492681 eV
  Monopole - monopole (real) =         -38.91629601 eV
  Monopole - monopole (recip)=         -47.52568849 eV
  Monopole - monopole (total)=         -86.44198450 eV
--------------------------------------------------------------------------------
  Total lattice energy       =         -77.33705769 eV
--------------------------------------------------------------------------------
  Total lattice energy       =           -7461.8439 kJ/(mole unit cells)
--------------------------------------------------------------------------------

  Final asymmetric unit coordinates :

--------------------------------------------------------------------------------
   No.  Atomic        x           y           z         Radius
        Label       (Frac)      (Frac)      (Frac)       (Angs) 
--------------------------------------------------------------------------------
     1  K     c     0.042000    0.250000    0.490600    0.000000
     2  Ca    c     0.000000    0.000000    0.000000    0.000000
     3  F     c     0.471500    0.250000    0.581200    0.000000
     4  F     c     0.291600    0.040400    0.206800    0.000000
     5  F     s     0.471500    0.250000    0.581200    0.000000
     6  F     s     0.291600    0.040400    0.206800    0.000000
--------------------------------------------------------------------------------

  Final Cartesian lattice vectors (Angstroms) :

        6.345954    0.000000    0.000000
        0.000000    8.812969    0.000000
        0.000000    0.000000    6.234673


  Final cell parameters and derivatives :

--------------------------------------------------------------------------------
       a            6.345954 Angstrom     dE/de1(xx)    -0.000016 eV/strain
       b            8.812969 Angstrom     dE/de2(yy)    -0.000003 eV/strain
       c            6.234673 Angstrom     dE/de3(zz)    -0.000014 eV/strain
       alpha       90.000000 Degrees      dE/de4(yz)     0.000000 eV/strain
       beta        90.000000 Degrees      dE/de5(xz)     0.000000 eV/strain
       gamma       90.000000 Degrees      dE/de6(xy)     0.000000 eV/strain
--------------------------------------------------------------------------------

  Primitive cell volume =           348.684680 Angs**3

  Density of cell =      2.594158 g/cm**3

  Non-primitive cell volume =           348.684680 Angs**3


  Final internal derivatives :

--------------------------------------------------------------------------------
   No.  Atomic          a             b             c           Radius
        Label          (eV)          (eV)          (eV)        (eV/Angs)
--------------------------------------------------------------------------------
      1 K     c       0.000000      0.000000      0.000000      0.000000
      2 Ca    c       0.000000      0.000000      0.000000      0.000000
      3 F     c       0.000000      0.000000      0.000000      0.000000
      4 F     c       0.000000      0.000000      0.000000      0.000000
      5 F     s       0.000000      0.000000      0.000000      0.000000
      6 F     s       0.000000      0.000000      0.000000      0.000000
--------------------------------------------------------------------------------
  Maximum abs         0.000000      0.000000      0.000000      0.000000
--------------------------------------------------------------------------------


  Born effective charge tensors : 

-------------------------------------------------------------------------------
  Atom             x           y             z
-------------------------------------------------------------------------------
   1 K     x       0.6287      0.0000     -0.0269
           y       0.0000      0.6562      0.0000
           z      -0.0272      0.0000      0.6215
-------------------------------------------------------------------------------
   2 Ca    x       1.3327      0.0065     -0.0114
           y       0.0011      1.3098     -0.0041
           z       0.0018      0.0118      1.3332
-------------------------------------------------------------------------------
   3 F     x      -0.6152      0.0000      0.0157
           y       0.0000     -0.7153      0.0000
           z       0.0218      0.0000     -0.5985
-------------------------------------------------------------------------------
   4 F     x      -0.6731      0.0155     -0.0551
           y       0.0183     -0.6254     -0.0152
           z      -0.0541     -0.0153     -0.6781
-------------------------------------------------------------------------------




  Elastic Constant Matrix: (Units=GPa)

-------------------------------------------------------------------------------
  Indices      1         2         3         4         5         6    
-------------------------------------------------------------------------------
       1     49.2284   21.0149   25.5651    0.0000    0.0000    0.0000
       2     21.0149   54.3567   23.6009    0.0000    0.0000    0.0000
       3     25.5651   23.6009   49.5759    0.0000    0.0000    0.0000
       4      0.0000    0.0000    0.0000   14.3501    0.0000    0.0000
       5      0.0000    0.0000    0.0000    0.0000   14.7257    0.0000
       6      0.0000    0.0000    0.0000    0.0000    0.0000   17.0999
-------------------------------------------------------------------------------


  Elastic Compliance Matrix: (Units=1/GPa)

-------------------------------------------------------------------------------
  Indices      1         2         3         4         5         6    
-------------------------------------------------------------------------------
       1    0.029213 -0.005992 -0.012212  0.000000  0.000000  0.000000
       2   -0.005992  0.024419 -0.008535  0.000000  0.000000  0.000000
       3   -0.012212 -0.008535  0.030532  0.000000  0.000000  0.000000
       4    0.000000  0.000000  0.000000  0.069686  0.000000  0.000000
       5    0.000000  0.000000  0.000000  0.000000  0.067908  0.000000
       6    0.000000  0.000000  0.000000  0.000000  0.000000  0.058480
-------------------------------------------------------------------------------

  Mechanical properties :

-------------------------------------------------------------------------------
  Convention :                    Reuss         Voigt         Hill
-------------------------------------------------------------------------------
  Bulk  Modulus (GPa)     =      32.58796      32.61367      32.60081
  Shear Modulus (GPa)     =      14.53719      14.76716      14.65217
-------------------------------------------------------------------------------
  Velocity S-wave (km/s)  =       2.36724       2.38589       2.37658
  Velocity P-wave (km/s)  =       4.47591       4.49020       4.48306
-------------------------------------------------------------------------------
  Compressibility (1/GPa) =    0.03068618
-------------------------------------------------------------------------------
  Stress axis :                     x             y             z
-------------------------------------------------------------------------------
  Youngs Moduli (GPa)     =      34.23102      40.95119      32.75276
-------------------------------------------------------------------------------
  Poissons Ratio (x)      =                     0.24537       0.39998
  Poissons Ratio (y)      =       0.20511                     0.27955
  Poissons Ratio (z)      =       0.41803       0.34952
-------------------------------------------------------------------------------


  Piezoelectric Strain Matrix: (Units=C/m**2)

-------------------------------------------------------------------------------
  Indices      1         2         3         4         5         6    
-------------------------------------------------------------------------------
       x     0.00000   0.00000   0.00000   0.00000   0.00000   0.00000
       y     0.00000   0.00000   0.00000   0.00000   0.00000   0.00000
       z     0.00000   0.00000   0.00000   0.00000   0.00000   0.00000
-------------------------------------------------------------------------------


  Piezoelectric Stress Matrix: (Units=10**-11 C/N)

-------------------------------------------------------------------------------
  Indices      1         2         3         4         5         6    
-------------------------------------------------------------------------------
       x     0.00000   0.00000   0.00000   0.00000   0.00000   0.00000
       y     0.00000   0.00000   0.00000   0.00000   0.00000   0.00000
       z     0.00000   0.00000   0.00000   0.00000   0.00000   0.00000
-------------------------------------------------------------------------------


  Static dielectric constant tensor : 

-------------------------------------------------------------------------------
              x         y         z
-------------------------------------------------------------------------------
       x     3.43942   0.00000   0.00000
       y     0.00000   3.58012   0.00000
       z     0.00000   0.00000   3.21295
--------------------------------------------------------------------------------

  High frequency dielectric constant tensor : 

-------------------------------------------------------------------------------
              x         y         z
-------------------------------------------------------------------------------
       x     1.47791   0.00000   0.00000
       y     0.00000   1.47893   0.00000
       z     0.00000   0.00000   1.47635
-------------------------------------------------------------------------------

  Static refractive indices : 

-------------------------------------------------------------------------------
    1 =    1.79247      2 =    1.85457      3 =    1.89212
-------------------------------------------------------------------------------

  High frequency refractive indices : 

-------------------------------------------------------------------------------
    1 =    1.21505      2 =    1.21569      3 =    1.21611
-------------------------------------------------------------------------------


  Time to end of optimisation =       0.0415 seconds


  Peak dynamic memory used =       0.73 MB 


  Timing analysis for GULP :

--------------------------------------------------------------------------------
  Task / Subroutine                                          Time (Seconds)
--------------------------------------------------------------------------------
  Calculation of reciprocal space energy and derivatives          0.0026
  Calculation of reciprocal space energy using symmetry           0.0030
  Calculation of real space energy and derivatives                0.0125
  Calculation of real space energy using symmetry                 0.0194
  Symmetry generation of equivalent positions                     0.0004
--------------------------------------------------------------------------------
  Total CPU time                                                  0.0415
--------------------------------------------------------------------------------


  CIF file written as perov.cif                                               


  Job Finished at 09:35.58  6th April      2017                               

