********************************************************************************
*                       GENERAL UTILITY LATTICE PROGRAM                        *
*                                 Julian Gale                                  *
*                      Nanochemistry Research Institute                        *
*                           Department of Chemistry                            *
*                    Curtin University, Western Australia                      *
********************************************************************************
* Version = 4.3.2 * Last modified =  3rd March 2015                            *
********************************************************************************
*  optimise     - perform optimisation run                                     *
*  cell_only    - only optimise unit cell                                      *
*  property     - calculate properties for final geometry                      *
********************************************************************************

  Job Started  at 09:35.57  6th April      2017                               

  Number of CPUs =     1


  Total number of configurations input =   1

********************************************************************************
*  Input for Configuration =   1                                               *
********************************************************************************

  Formula = K4Ca4F12                                                    

  Number of irreducible atoms/shells =       6


  Total number atoms/shells =      32

  Dimensionality = 3               :  Bulk   


  Symmetry :

  Crystal family                   :  Orthorhombic
  Crystal class  (Groth - 1921)    :  Orthorhombic Bipyramidal             

  Space group (centrosymmetric)    :  P N M A         

  Patterson group                  :  P m m m  

  Cartesian lattice vectors (Angstroms) :

        6.223500    0.000000    0.000000
        0.000000    8.710300    0.000000
        0.000000    0.000000    6.118000

  Cell parameters (Angstroms/Degrees):

  a =       6.2235    alpha =  90.0000
  b =       8.7103    beta  =  90.0000
  c =       6.1180    gamma =  90.0000

  Initial cell volume =         331.647921 Angs**3

  Temperature of configuration =  0.000     K 

  Pressure of configuration =         0.000 GPa 

  Fractional coordinates of asymmetric unit :

--------------------------------------------------------------------------------
   No.  Atomic       x           y          z         Charge      Occupancy
        Label      (Frac)      (Frac)     (Frac)        (e)         (Frac)  
--------------------------------------------------------------------------------
      1 K     c    0.042000    0.250000    0.490600     0.60000    1.000000    
      2 Ca    c    0.000000    0.000000    0.000000     2.50000    1.000000    
      3 F     c    0.471500    0.250000    0.581200     0.37800    1.000000    
      4 F     c    0.291600    0.040400    0.206800     0.37800    1.000000    
      5 F     s    0.471500    0.250000    0.581200    -1.41133    1.000000    
      6 F     s    0.291600    0.040400    0.206800    -1.41133    1.000000    
--------------------------------------------------------------------------------



********************************************************************************
*  General input information                                                   *
********************************************************************************

  Species output for all configurations : 

--------------------------------------------------------------------------------
  Species    Type    Atomic    Atomic    Charge       Radii (Angs)     Library
                     Number     Mass       (e)     Cova   Ionic  VDW   Symbol
--------------------------------------------------------------------------------
    K        Core       19      39.10   0.600000   1.330  0.000  2.800          
    Ca       Core       20      40.08   2.500000   0.990  0.000  2.750          
    F        Core        9      19.00   0.378000   0.710  0.000  1.300          
    F        Shell       9       0.00  -1.411333   0.710  0.000  1.300          
--------------------------------------------------------------------------------


  Lattice summation method               =    Ewald          (3-D)
                                         =    Parry          (2-D)
                                         =    Saunders et al (1-D)
  Accuracy factor for lattice sums       =   12.000


  Time limit = Infinity

  Maximum range for interatomic potentials =    100000.000000 Angstroms

  General interatomic potentials :

--------------------------------------------------------------------------------
Atom  Types   Potential         A         B         C         D     Cutoffs(Ang)
  1     2                                                            Min    Max 
--------------------------------------------------------------------------------
K    c K    c Buckingham    0.219E+04 0.192      0.00      0.00     0.000 10.000
Ca   c F    s Buckingham    0.148E+04 0.266      0.00      0.00     0.000 10.000
F    s F    s Buckingham     912.     0.271      13.8      0.00     0.000 10.000
K    c F    s Buckingham    0.352E+04 0.267      0.00      0.00     0.000 10.000
F    c F    s Spring (c-s)   25.5      0.00      0.00      0.00     0.000  0.800
--------------------------------------------------------------------------------

********************************************************************************
*  Output for configuration   1                                                *
********************************************************************************


  Components of energy : 

--------------------------------------------------------------------------------
  Interatomic potentials     =          10.66009013 eV
  Monopole - monopole (real) =         -87.09617040 eV
  Monopole - monopole (recip)=        -108.77100878 eV
  Monopole - monopole (total)=        -195.86717918 eV
--------------------------------------------------------------------------------
  Total lattice energy       =        -185.20708904 eV
--------------------------------------------------------------------------------
  Total lattice energy       =          -17869.6529 kJ/(mole unit cells)
--------------------------------------------------------------------------------


  Number of variables =        3

  Maximum number of calculations  =          1000
  Maximum Hessian update interval =            10
  Maximum step size               =   1.000000000
  Maximum parameter tolerance     =   0.000010000
  Maximum function  tolerance     =   0.000010000
  Maximum gradient  tolerance     =   0.001000000
  Maximum gradient  component     =   0.010000000

  Symmetry constrained optimisation

  Symmetry used for second derivatives

  Cell parameters to be optimised using strains

  Newton-Raphson optimiser to be used

  BFGS hessian update to be used

  Start of bulk optimisation :

  Cycle:      0 Energy:      -185.207089  Gnorm:     18.545182  CPU:    0.007
  ** Hessian calculated **
  Cycle:      1 Energy:      -189.812856  Gnorm:      8.039402  CPU:    0.013
  Cycle:      2 Energy:      -190.541293  Gnorm:      0.236686  CPU:    0.019
  Cycle:      3 Energy:      -190.541293  Gnorm:      0.236686  CPU:    0.024
  ** Hessian calculated **
  Cycle:      4 Energy:      -190.542678  Gnorm:      0.004148  CPU:    0.034


  **** Optimisation achieved ****


  Final energy =    -190.54267815 eV
  Final Gnorm  =       0.00045077

  Components of energy : 

--------------------------------------------------------------------------------
  Interatomic potentials     =          25.42763677 eV
  Monopole - monopole (real) =         -96.03146517 eV
  Monopole - monopole (recip)=        -119.93884975 eV
  Monopole - monopole (total)=        -215.97031492 eV
--------------------------------------------------------------------------------
  Total lattice energy       =        -190.54267815 eV
--------------------------------------------------------------------------------
  Total lattice energy       =          -18384.4557 kJ/(mole unit cells)
--------------------------------------------------------------------------------

  Final asymmetric unit coordinates :

--------------------------------------------------------------------------------
   No.  Atomic        x           y           z         Radius
        Label       (Frac)      (Frac)      (Frac)       (Angs) 
--------------------------------------------------------------------------------
     1  K     c     0.042000    0.250000    0.490600    0.000000
     2  Ca    c     0.000000    0.000000    0.000000    0.000000
     3  F     c     0.471500    0.250000    0.581200    0.000000
     4  F     c     0.291600    0.040400    0.206800    0.000000
     5  F     s     0.471500    0.250000    0.581200    0.000000
     6  F     s     0.291600    0.040400    0.206800    0.000000
--------------------------------------------------------------------------------

  Final Cartesian lattice vectors (Angstroms) :

        5.662534    0.000000    0.000000
        0.000000    7.854215    0.000000
        0.000000    0.000000    5.561810


  Final cell parameters and derivatives :

--------------------------------------------------------------------------------
       a            5.662534 Angstrom     dE/de1(xx)     0.000740 eV/strain
       b            7.854215 Angstrom     dE/de2(yy)     0.000922 eV/strain
       c            5.561810 Angstrom     dE/de3(zz)     0.000657 eV/strain
       alpha       90.000000 Degrees      dE/de4(yz)     0.000000 eV/strain
       beta        90.000000 Degrees      dE/de5(xz)     0.000000 eV/strain
       gamma       90.000000 Degrees      dE/de6(xy)     0.000000 eV/strain
--------------------------------------------------------------------------------

  Primitive cell volume =           247.360168 Angs**3

  Density of cell =      3.656786 g/cm**3

  Non-primitive cell volume =           247.360168 Angs**3


  Final internal derivatives :

--------------------------------------------------------------------------------
   No.  Atomic          a             b             c           Radius
        Label          (eV)          (eV)          (eV)        (eV/Angs)
--------------------------------------------------------------------------------
      1 K     c       0.000000      0.000000      0.000000      0.000000
      2 Ca    c       0.000000      0.000000      0.000000      0.000000
      3 F     c       0.000000      0.000000      0.000000      0.000000
      4 F     c       0.000000      0.000000      0.000000      0.000000
      5 F     s       0.000000      0.000000      0.000000      0.000000
      6 F     s       0.000000      0.000000      0.000000      0.000000
--------------------------------------------------------------------------------
  Maximum abs         0.000000      0.000000      0.000000      0.000000
--------------------------------------------------------------------------------


  Born effective charge tensors : 

-------------------------------------------------------------------------------
  Atom             x           y             z
-------------------------------------------------------------------------------
   1 K     x       0.3365      0.0000     -0.0837
           y       0.0000      0.3937      0.0000
           z      -0.0660      0.0000      0.3280
-------------------------------------------------------------------------------
   2 Ca    x       2.4064      0.0159     -0.0786
           y      -0.0196      2.3549     -0.0643
           z       0.0374      0.0756      2.4083
-------------------------------------------------------------------------------
   3 F     x      -0.7411      0.0000      0.0380
           y       0.0000     -1.2379      0.0000
           z       0.0674      0.0000     -0.7143
-------------------------------------------------------------------------------
   4 F     x      -1.0009      0.0299     -0.2615
           y       0.0341     -0.7553     -0.0116
           z      -0.2576     -0.0084     -1.0109
-------------------------------------------------------------------------------




  Elastic Constant Matrix: (Units=GPa)

-------------------------------------------------------------------------------
  Indices      1         2         3         4         5         6    
-------------------------------------------------------------------------------
       1    143.9191   68.8666   74.0107    0.0000    0.0000    0.0000
       2     68.8666  149.4166   84.2189    0.0000    0.0000    0.0000
       3     74.0107   84.2189  145.7728    0.0000    0.0000    0.0000
       4      0.0000    0.0000    0.0000   47.3273    0.0000    0.0000
       5      0.0000    0.0000    0.0000    0.0000   31.8335    0.0000
       6      0.0000    0.0000    0.0000    0.0000    0.0000   58.5322
-------------------------------------------------------------------------------


  Elastic Compliance Matrix: (Units=1/GPa)

-------------------------------------------------------------------------------
  Indices      1         2         3         4         5         6    
-------------------------------------------------------------------------------
       1    0.010042 -0.002602 -0.003595  0.000000  0.000000  0.000000
       2   -0.002602  0.010599 -0.004802  0.000000  0.000000  0.000000
       3   -0.003595 -0.004802  0.011460  0.000000  0.000000  0.000000
       4    0.000000  0.000000  0.000000  0.021129  0.000000  0.000000
       5    0.000000  0.000000  0.000000  0.000000  0.031413  0.000000
       6    0.000000  0.000000  0.000000  0.000000  0.000000  0.017085
-------------------------------------------------------------------------------

  Mechanical properties :

-------------------------------------------------------------------------------
  Convention :                    Reuss         Voigt         Hill
-------------------------------------------------------------------------------
  Bulk  Modulus (GPa)     =      98.99296      99.25564      99.12430
  Shear Modulus (GPa)     =      39.34064      41.67275      40.50670
-------------------------------------------------------------------------------
  Velocity S-wave (km/s)  =       3.27998       3.37580       3.32823
  Velocity P-wave (km/s)  =       6.43548       6.50673       6.47120
-------------------------------------------------------------------------------
  Compressibility (1/GPa) =    0.01010173
-------------------------------------------------------------------------------
  Stress axis :                     x             y             z
-------------------------------------------------------------------------------
  Youngs Moduli (GPa)     =      99.57831      94.35037      87.26129
-------------------------------------------------------------------------------
  Poissons Ratio (x)      =                     0.24550       0.31373
  Poissons Ratio (y)      =       0.25911                     0.41905
  Poissons Ratio (z)      =       0.35802       0.45309
-------------------------------------------------------------------------------


  Piezoelectric Strain Matrix: (Units=C/m**2)

-------------------------------------------------------------------------------
  Indices      1         2         3         4         5         6    
-------------------------------------------------------------------------------
       x     0.00000   0.00000   0.00000   0.00000   0.00000   0.00000
       y     0.00000   0.00000   0.00000   0.00000   0.00000   0.00000
       z     0.00000   0.00000   0.00000   0.00000   0.00000   0.00000
-------------------------------------------------------------------------------


  Piezoelectric Stress Matrix: (Units=10**-11 C/N)

-------------------------------------------------------------------------------
  Indices      1         2         3         4         5         6    
-------------------------------------------------------------------------------
       x     0.00000   0.00000   0.00000   0.00000   0.00000   0.00000
       y     0.00000   0.00000   0.00000   0.00000   0.00000   0.00000
       z     0.00000   0.00000   0.00000   0.00000   0.00000   0.00000
-------------------------------------------------------------------------------


  Static dielectric constant tensor : 

-------------------------------------------------------------------------------
              x         y         z
-------------------------------------------------------------------------------
       x     5.24946   0.00000   0.00000
       y     0.00000   4.50949   0.00000
       z     0.00000   0.00000   5.00192
--------------------------------------------------------------------------------

  High frequency dielectric constant tensor : 

-------------------------------------------------------------------------------
              x         y         z
-------------------------------------------------------------------------------
       x     1.67056   0.00000   0.00000
       y     0.00000   1.67199   0.00000
       z     0.00000   0.00000   1.66860
-------------------------------------------------------------------------------

  Static refractive indices : 

-------------------------------------------------------------------------------
    1 =    2.12356      2 =    2.23650      3 =    2.29117
-------------------------------------------------------------------------------

  High frequency refractive indices : 

-------------------------------------------------------------------------------
    1 =    1.29174      2 =    1.29250      3 =    1.29305
-------------------------------------------------------------------------------


  Time to end of optimisation =       0.0564 seconds


  Peak dynamic memory used =       0.73 MB 


  Timing analysis for GULP :

--------------------------------------------------------------------------------
  Task / Subroutine                                          Time (Seconds)
--------------------------------------------------------------------------------
  Calculation of reciprocal space energy and derivatives          0.0026
  Calculation of reciprocal space energy using symmetry           0.0048
  Calculation of real space energy and derivatives                0.0129
  Calculation of real space energy using symmetry                 0.0316
  Symmetry generation of equivalent positions                     0.0004
--------------------------------------------------------------------------------
  Total CPU time                                                  0.0564
--------------------------------------------------------------------------------


  CIF file written as perov.cif                                               


  Job Finished at 09:35.58  6th April      2017                               

