********************************************************************************
*                       GENERAL UTILITY LATTICE PROGRAM                        *
*                                 Julian Gale                                  *
*                      Nanochemistry Research Institute                        *
*                           Department of Chemistry                            *
*                    Curtin University, Western Australia                      *
********************************************************************************
* Version = 4.3.2 * Last modified =  3rd March 2015                            *
********************************************************************************
*  optimise     - perform optimisation run                                     *
*  cell_only    - only optimise unit cell                                      *
*  property     - calculate properties for final geometry                      *
********************************************************************************

  Job Started  at 09:36.00  6th April      2017                               

  Number of CPUs =     1


  Total number of configurations input =   1

********************************************************************************
*  Input for Configuration =   1                                               *
********************************************************************************

  Formula = K4Ca4F12                                                    

  Number of irreducible atoms/shells =       6


  Total number atoms/shells =      32

  Dimensionality = 3               :  Bulk   


  Symmetry :

  Crystal family                   :  Orthorhombic
  Crystal class  (Groth - 1921)    :  Orthorhombic Bipyramidal             

  Space group (centrosymmetric)    :  P N M A         

  Patterson group                  :  P m m m  

  Cartesian lattice vectors (Angstroms) :

        6.223500    0.000000    0.000000
        0.000000    8.710300    0.000000
        0.000000    0.000000    6.118000

  Cell parameters (Angstroms/Degrees):

  a =       6.2235    alpha =  90.0000
  b =       8.7103    beta  =  90.0000
  c =       6.1180    gamma =  90.0000

  Initial cell volume =         331.647921 Angs**3

  Temperature of configuration =  0.000     K 

  Pressure of configuration =         0.000 GPa 

  Fractional coordinates of asymmetric unit :

--------------------------------------------------------------------------------
   No.  Atomic       x           y          z         Charge      Occupancy
        Label      (Frac)      (Frac)     (Frac)        (e)         (Frac)  
--------------------------------------------------------------------------------
      1 K     c    0.042000    0.250000    0.490600     1.00000    1.000000    
      2 Ca    c    0.000000    0.000000    0.000000     2.40000    1.000000    
      3 F     c    0.471500    0.250000    0.581200     0.37800    1.000000    
      4 F     c    0.291600    0.040400    0.206800     0.37800    1.000000    
      5 F     s    0.471500    0.250000    0.581200    -1.51133    1.000000    
      6 F     s    0.291600    0.040400    0.206800    -1.51133    1.000000    
--------------------------------------------------------------------------------



********************************************************************************
*  General input information                                                   *
********************************************************************************

  Species output for all configurations : 

--------------------------------------------------------------------------------
  Species    Type    Atomic    Atomic    Charge       Radii (Angs)     Library
                     Number     Mass       (e)     Cova   Ionic  VDW   Symbol
--------------------------------------------------------------------------------
    K        Core       19      39.10   1.000000   1.330  0.000  2.800          
    Ca       Core       20      40.08   2.400000   0.990  0.000  2.750          
    F        Core        9      19.00   0.378000   0.710  0.000  1.300          
    F        Shell       9       0.00  -1.511333   0.710  0.000  1.300          
--------------------------------------------------------------------------------


  Lattice summation method               =    Ewald          (3-D)
                                         =    Parry          (2-D)
                                         =    Saunders et al (1-D)
  Accuracy factor for lattice sums       =   12.000


  Time limit = Infinity

  Maximum range for interatomic potentials =    100000.000000 Angstroms

  General interatomic potentials :

--------------------------------------------------------------------------------
Atom  Types   Potential         A         B         C         D     Cutoffs(Ang)
  1     2                                                            Min    Max 
--------------------------------------------------------------------------------
K    c K    c Buckingham    0.219E+04 0.192      0.00      0.00     0.000 10.000
Ca   c F    s Buckingham    0.148E+04 0.266      0.00      0.00     0.000 10.000
F    s F    s Buckingham     912.     0.271      13.8      0.00     0.000 10.000
K    c F    s Buckingham    0.352E+04 0.267      0.00      0.00     0.000 10.000
F    c F    s Spring (c-s)   29.3      0.00      0.00      0.00     0.000  0.800
--------------------------------------------------------------------------------

********************************************************************************
*  Output for configuration   1                                                *
********************************************************************************


  Components of energy : 

--------------------------------------------------------------------------------
  Interatomic potentials     =          10.66009013 eV
  Monopole - monopole (real) =         -96.34998275 eV
  Monopole - monopole (recip)=        -117.79523767 eV
  Monopole - monopole (total)=        -214.14522042 eV
--------------------------------------------------------------------------------
  Total lattice energy       =        -203.48513029 eV
--------------------------------------------------------------------------------
  Total lattice energy       =          -19633.2045 kJ/(mole unit cells)
--------------------------------------------------------------------------------


  Number of variables =        3

  Maximum number of calculations  =          1000
  Maximum Hessian update interval =            10
  Maximum step size               =   1.000000000
  Maximum parameter tolerance     =   0.000010000
  Maximum function  tolerance     =   0.000010000
  Maximum gradient  tolerance     =   0.001000000
  Maximum gradient  component     =   0.010000000

  Symmetry constrained optimisation

  Symmetry used for second derivatives

  Cell parameters to be optimised using strains

  Newton-Raphson optimiser to be used

  BFGS hessian update to be used

  Start of bulk optimisation :

  Cycle:      0 Energy:      -203.485130  Gnorm:     22.063431  CPU:    0.007
  ** Hessian calculated **
  Cycle:      1 Energy:      -210.797561  Gnorm:      1.648153  CPU:    0.016
  Cycle:      2 Energy:      -210.829981  Gnorm:      0.868042  CPU:    0.023
  Cycle:      3 Energy:      -210.837269  Gnorm:      0.020491  CPU:    0.031


  **** Optimisation achieved ****


  Final energy =    -210.83727829 eV
  Final Gnorm  =       0.00090063

  Components of energy : 

--------------------------------------------------------------------------------
  Interatomic potentials     =          28.54934631 eV
  Monopole - monopole (real) =        -107.70214162 eV
  Monopole - monopole (recip)=        -131.68448299 eV
  Monopole - monopole (total)=        -239.38662460 eV
--------------------------------------------------------------------------------
  Total lattice energy       =        -210.83727829 eV
--------------------------------------------------------------------------------
  Total lattice energy       =          -20342.5744 kJ/(mole unit cells)
--------------------------------------------------------------------------------

  Final asymmetric unit coordinates :

--------------------------------------------------------------------------------
   No.  Atomic        x           y           z         Radius
        Label       (Frac)      (Frac)      (Frac)       (Angs) 
--------------------------------------------------------------------------------
     1  K     c     0.042000    0.250000    0.490600    0.000000
     2  Ca    c     0.000000    0.000000    0.000000    0.000000
     3  F     c     0.471500    0.250000    0.581200    0.000000
     4  F     c     0.291600    0.040400    0.206800    0.000000
     5  F     s     0.471500    0.250000    0.581200    0.000000
     6  F     s     0.291600    0.040400    0.206800    0.000000
--------------------------------------------------------------------------------

  Final Cartesian lattice vectors (Angstroms) :

        5.586782    0.000000    0.000000
        0.000000    7.747105    0.000000
        0.000000    0.000000    5.484681


  Final cell parameters and derivatives :

--------------------------------------------------------------------------------
       a            5.586782 Angstrom     dE/de1(xx)     0.002127 eV/strain
       b            7.747105 Angstrom     dE/de2(yy)    -0.001413 eV/strain
       c            5.484681 Angstrom     dE/de3(zz)    -0.000882 eV/strain
       alpha       90.000000 Degrees      dE/de4(yz)     0.000000 eV/strain
       beta        90.000000 Degrees      dE/de5(xz)     0.000000 eV/strain
       gamma       90.000000 Degrees      dE/de6(xy)     0.000000 eV/strain
--------------------------------------------------------------------------------

  Primitive cell volume =           237.384613 Angs**3

  Density of cell =      3.810454 g/cm**3

  Non-primitive cell volume =           237.384613 Angs**3


  Final internal derivatives :

--------------------------------------------------------------------------------
   No.  Atomic          a             b             c           Radius
        Label          (eV)          (eV)          (eV)        (eV/Angs)
--------------------------------------------------------------------------------
      1 K     c       0.000000      0.000000      0.000000      0.000000
      2 Ca    c       0.000000      0.000000      0.000000      0.000000
      3 F     c       0.000000      0.000000      0.000000      0.000000
      4 F     c       0.000000      0.000000      0.000000      0.000000
      5 F     s       0.000000      0.000000      0.000000      0.000000
      6 F     s       0.000000      0.000000      0.000000      0.000000
--------------------------------------------------------------------------------
  Maximum abs         0.000000      0.000000      0.000000      0.000000
--------------------------------------------------------------------------------


  Born effective charge tensors : 

-------------------------------------------------------------------------------
  Atom             x           y             z
-------------------------------------------------------------------------------
   1 K     x       0.7830      0.0000     -0.0662
           y       0.0000      0.8412      0.0000
           z      -0.0615      0.0000      0.7716
-------------------------------------------------------------------------------
   2 Ca    x       2.2359      0.0140     -0.0567
           y      -0.0111      2.1871     -0.0446
           z       0.0246      0.0555      2.2373
-------------------------------------------------------------------------------
   3 F     x      -0.8700      0.0000      0.0321
           y       0.0000     -1.2525      0.0000
           z       0.0589      0.0000     -0.8440
-------------------------------------------------------------------------------
   4 F     x      -1.0744      0.0280     -0.2006
           y       0.0339     -0.8879     -0.0198
           z      -0.1974     -0.0180     -1.0825
-------------------------------------------------------------------------------




  Elastic Constant Matrix: (Units=GPa)

-------------------------------------------------------------------------------
  Indices      1         2         3         4         5         6    
-------------------------------------------------------------------------------
       1    173.1526   80.3559   72.2082    0.0000    0.0000    0.0000
       2     80.3559  171.5254   91.5503    0.0000    0.0000    0.0000
       3     72.2082   91.5503  183.9916    0.0000    0.0000    0.0000
       4      0.0000    0.0000    0.0000   63.5004    0.0000    0.0000
       5      0.0000    0.0000    0.0000    0.0000   37.1412    0.0000
       6      0.0000    0.0000    0.0000    0.0000    0.0000   73.6485
-------------------------------------------------------------------------------


  Elastic Compliance Matrix: (Units=1/GPa)

-------------------------------------------------------------------------------
  Indices      1         2         3         4         5         6    
-------------------------------------------------------------------------------
       1    0.007743 -0.002731 -0.001680  0.000000  0.000000  0.000000
       2   -0.002731  0.008901 -0.003357  0.000000  0.000000  0.000000
       3   -0.001680 -0.003357  0.007765  0.000000  0.000000  0.000000
       4    0.000000  0.000000  0.000000  0.015748  0.000000  0.000000
       5    0.000000  0.000000  0.000000  0.000000  0.026924  0.000000
       6    0.000000  0.000000  0.000000  0.000000  0.000000  0.013578
-------------------------------------------------------------------------------

  Mechanical properties :

-------------------------------------------------------------------------------
  Convention :                    Reuss         Voigt         Hill
-------------------------------------------------------------------------------
  Bulk  Modulus (GPa)     =     112.70202     112.98870     112.84536
  Shear Modulus (GPa)     =      50.42668      53.82836      52.12752
-------------------------------------------------------------------------------
  Velocity S-wave (km/s)  =       3.63783       3.75852       3.69867
  Velocity P-wave (km/s)  =       6.87183       6.96331       6.91772
-------------------------------------------------------------------------------
  Compressibility (1/GPa) =    0.00887296
-------------------------------------------------------------------------------
  Stress axis :                     x             y             z
-------------------------------------------------------------------------------
  Youngs Moduli (GPa)     =     129.14627     112.34250     128.78377
-------------------------------------------------------------------------------
  Poissons Ratio (x)      =                     0.30678       0.21636
  Poissons Ratio (y)      =       0.35267                     0.43238
  Poissons Ratio (z)      =       0.21697       0.37718
-------------------------------------------------------------------------------


  Piezoelectric Strain Matrix: (Units=C/m**2)

-------------------------------------------------------------------------------
  Indices      1         2         3         4         5         6    
-------------------------------------------------------------------------------
       x     0.00000   0.00000   0.00000   0.00000   0.00000   0.00000
       y     0.00000   0.00000   0.00000   0.00000   0.00000   0.00000
       z     0.00000   0.00000   0.00000   0.00000   0.00000   0.00000
-------------------------------------------------------------------------------


  Piezoelectric Stress Matrix: (Units=10**-11 C/N)

-------------------------------------------------------------------------------
  Indices      1         2         3         4         5         6    
-------------------------------------------------------------------------------
       x     0.00000   0.00000   0.00000   0.00000   0.00000   0.00000
       y     0.00000   0.00000   0.00000   0.00000   0.00000   0.00000
       z     0.00000   0.00000   0.00000   0.00000   0.00000   0.00000
-------------------------------------------------------------------------------


  Static dielectric constant tensor : 

-------------------------------------------------------------------------------
              x         y         z
-------------------------------------------------------------------------------
       x     4.77759   0.00000   0.00000
       y     0.00000   4.47546   0.00000
       z     0.00000   0.00000   4.55310
--------------------------------------------------------------------------------

  High frequency dielectric constant tensor : 

-------------------------------------------------------------------------------
              x         y         z
-------------------------------------------------------------------------------
       x     1.69695   0.00000   0.00000
       y     0.00000   1.69902   0.00000
       z     0.00000   0.00000   1.69450
-------------------------------------------------------------------------------

  Static refractive indices : 

-------------------------------------------------------------------------------
    1 =    2.11553      2 =    2.13380      3 =    2.18577
-------------------------------------------------------------------------------

  High frequency refractive indices : 

-------------------------------------------------------------------------------
    1 =    1.30173      2 =    1.30267      3 =    1.30346
-------------------------------------------------------------------------------


  Time to end of optimisation =       0.0545 seconds


  Peak dynamic memory used =       0.73 MB 


  Timing analysis for GULP :

--------------------------------------------------------------------------------
  Task / Subroutine                                          Time (Seconds)
--------------------------------------------------------------------------------
  Calculation of reciprocal space energy and derivatives          0.0027
  Calculation of reciprocal space energy using symmetry           0.0045
  Calculation of real space energy and derivatives                0.0131
  Calculation of real space energy using symmetry                 0.0297
  Symmetry generation of equivalent positions                     0.0004
--------------------------------------------------------------------------------
  Total CPU time                                                  0.0545
--------------------------------------------------------------------------------


  CIF file written as perov.cif                                               


  Job Finished at 09:36.00  6th April      2017                               

