********************************************************************************
*                       GENERAL UTILITY LATTICE PROGRAM                        *
*                                 Julian Gale                                  *
*                      Nanochemistry Research Institute                        *
*                           Department of Chemistry                            *
*                    Curtin University, Western Australia                      *
********************************************************************************
* Version = 4.3.2 * Last modified =  3rd March 2015                            *
********************************************************************************
*  optimise     - perform optimisation run                                     *
*  cell_only    - only optimise unit cell                                      *
*  property     - calculate properties for final geometry                      *
********************************************************************************

  Job Started  at 09:36.02  6th April      2017                               

  Number of CPUs =     1


  Total number of configurations input =   1

********************************************************************************
*  Input for Configuration =   1                                               *
********************************************************************************

  Formula = K4Ca4F12                                                    

  Number of irreducible atoms/shells =       6


  Total number atoms/shells =      32

  Dimensionality = 3               :  Bulk   


  Symmetry :

  Crystal family                   :  Orthorhombic
  Crystal class  (Groth - 1921)    :  Orthorhombic Bipyramidal             

  Space group (centrosymmetric)    :  P N M A         

  Patterson group                  :  P m m m  

  Cartesian lattice vectors (Angstroms) :

        6.223500    0.000000    0.000000
        0.000000    8.710300    0.000000
        0.000000    0.000000    6.118000

  Cell parameters (Angstroms/Degrees):

  a =       6.2235    alpha =  90.0000
  b =       8.7103    beta  =  90.0000
  c =       6.1180    gamma =  90.0000

  Initial cell volume =         331.647921 Angs**3

  Temperature of configuration =  0.000     K 

  Pressure of configuration =         0.000 GPa 

  Fractional coordinates of asymmetric unit :

--------------------------------------------------------------------------------
   No.  Atomic       x           y          z         Charge      Occupancy
        Label      (Frac)      (Frac)     (Frac)        (e)         (Frac)  
--------------------------------------------------------------------------------
      1 K     c    0.042000    0.250000    0.490600     1.20000    1.000000    
      2 Ca    c    0.000000    0.000000    0.000000     2.50000    1.000000    
      3 F     c    0.471500    0.250000    0.581200     0.37800    1.000000    
      4 F     c    0.291600    0.040400    0.206800     0.37800    1.000000    
      5 F     s    0.471500    0.250000    0.581200    -1.61133    1.000000    
      6 F     s    0.291600    0.040400    0.206800    -1.61133    1.000000    
--------------------------------------------------------------------------------



********************************************************************************
*  General input information                                                   *
********************************************************************************

  Species output for all configurations : 

--------------------------------------------------------------------------------
  Species    Type    Atomic    Atomic    Charge       Radii (Angs)     Library
                     Number     Mass       (e)     Cova   Ionic  VDW   Symbol
--------------------------------------------------------------------------------
    K        Core       19      39.10   1.200000   1.330  0.000  2.800          
    Ca       Core       20      40.08   2.500000   0.990  0.000  2.750          
    F        Core        9      19.00   0.378000   0.710  0.000  1.300          
    F        Shell       9       0.00  -1.611333   0.710  0.000  1.300          
--------------------------------------------------------------------------------


  Lattice summation method               =    Ewald          (3-D)
                                         =    Parry          (2-D)
                                         =    Saunders et al (1-D)
  Accuracy factor for lattice sums       =   12.000


  Time limit = Infinity

  Maximum range for interatomic potentials =    100000.000000 Angstroms

  General interatomic potentials :

--------------------------------------------------------------------------------
Atom  Types   Potential         A         B         C         D     Cutoffs(Ang)
  1     2                                                            Min    Max 
--------------------------------------------------------------------------------
K    c K    c Buckingham    0.219E+04 0.192      0.00      0.00     0.000 10.000
Ca   c F    s Buckingham    0.148E+04 0.266      0.00      0.00     0.000 10.000
F    s F    s Buckingham     912.     0.271      13.8      0.00     0.000 10.000
K    c F    s Buckingham    0.352E+04 0.267      0.00      0.00     0.000 10.000
F    c F    s Spring (c-s)   33.3      0.00      0.00      0.00     0.000  0.800
--------------------------------------------------------------------------------

********************************************************************************
*  Output for configuration   1                                                *
********************************************************************************


  Components of energy : 

--------------------------------------------------------------------------------
  Interatomic potentials     =          10.66009013 eV
  Monopole - monopole (real) =        -111.39863979 eV
  Monopole - monopole (recip)=        -136.02876461 eV
  Monopole - monopole (total)=        -247.42740440 eV
--------------------------------------------------------------------------------
  Total lattice energy       =        -236.76731427 eV
--------------------------------------------------------------------------------
  Total lattice energy       =          -22844.4265 kJ/(mole unit cells)
--------------------------------------------------------------------------------


  Number of variables =        3

  Maximum number of calculations  =          1000
  Maximum Hessian update interval =            10
  Maximum step size               =   1.000000000
  Maximum parameter tolerance     =   0.000010000
  Maximum function  tolerance     =   0.000010000
  Maximum gradient  tolerance     =   0.001000000
  Maximum gradient  component     =   0.010000000

  Symmetry constrained optimisation

  Symmetry used for second derivatives

  Cell parameters to be optimised using strains

  Newton-Raphson optimiser to be used

  BFGS hessian update to be used

  Start of bulk optimisation :

  Cycle:      0 Energy:      -236.767314  Gnorm:     28.469490  CPU:    0.007
  ** Hessian calculated **
  Cycle:      1 Energy:      -248.198497  Gnorm:      4.454377  CPU:    0.015
  ** Hessian calculated **
  Cycle:      2 Energy:      -248.476749  Gnorm:      0.333685  CPU:    0.025
  Cycle:      3 Energy:      -248.477598  Gnorm:      0.044098  CPU:    0.031
  Cycle:      4 Energy:      -248.477613  Gnorm:      0.000209  CPU:    0.037


  **** Optimisation achieved ****


  Final energy =    -248.47761288 eV
  Final Gnorm  =       0.00002073

  Components of energy : 

--------------------------------------------------------------------------------
  Interatomic potentials     =          34.46131691 eV
  Monopole - monopole (real) =        -127.38140559 eV
  Monopole - monopole (recip)=        -155.55752419 eV
  Monopole - monopole (total)=        -282.93892978 eV
--------------------------------------------------------------------------------
  Total lattice energy       =        -248.47761288 eV
--------------------------------------------------------------------------------
  Total lattice energy       =          -23974.2913 kJ/(mole unit cells)
--------------------------------------------------------------------------------

  Final asymmetric unit coordinates :

--------------------------------------------------------------------------------
   No.  Atomic        x           y           z         Radius
        Label       (Frac)      (Frac)      (Frac)       (Angs) 
--------------------------------------------------------------------------------
     1  K     c     0.042000    0.250000    0.490600    0.000000
     2  Ca    c     0.000000    0.000000    0.000000    0.000000
     3  F     c     0.471500    0.250000    0.581200    0.000000
     4  F     c     0.291600    0.040400    0.206800    0.000000
     5  F     s     0.471500    0.250000    0.581200    0.000000
     6  F     s     0.291600    0.040400    0.206800    0.000000
--------------------------------------------------------------------------------

  Final Cartesian lattice vectors (Angstroms) :

        5.462417    0.000000    0.000000
        0.000000    7.573087    0.000000
        0.000000    0.000000    5.360873


  Final cell parameters and derivatives :

--------------------------------------------------------------------------------
       a            5.462417 Angstrom     dE/de1(xx)     0.000040 eV/strain
       b            7.573087 Angstrom     dE/de2(yy)     0.000011 eV/strain
       c            5.360873 Angstrom     dE/de3(zz)    -0.000046 eV/strain
       alpha       90.000000 Degrees      dE/de4(yz)     0.000000 eV/strain
       beta        90.000000 Degrees      dE/de5(xz)     0.000000 eV/strain
       gamma       90.000000 Degrees      dE/de6(xy)     0.000000 eV/strain
--------------------------------------------------------------------------------

  Primitive cell volume =           221.765184 Angs**3

  Density of cell =      4.078833 g/cm**3

  Non-primitive cell volume =           221.765184 Angs**3


  Final internal derivatives :

--------------------------------------------------------------------------------
   No.  Atomic          a             b             c           Radius
        Label          (eV)          (eV)          (eV)        (eV/Angs)
--------------------------------------------------------------------------------
      1 K     c       0.000000      0.000000      0.000000      0.000000
      2 Ca    c       0.000000      0.000000      0.000000      0.000000
      3 F     c       0.000000      0.000000      0.000000      0.000000
      4 F     c       0.000000      0.000000      0.000000      0.000000
      5 F     s       0.000000      0.000000      0.000000      0.000000
      6 F     s       0.000000      0.000000      0.000000      0.000000
--------------------------------------------------------------------------------
  Maximum abs         0.000000      0.000000      0.000000      0.000000
--------------------------------------------------------------------------------


  Born effective charge tensors : 

-------------------------------------------------------------------------------
  Atom             x           y             z
-------------------------------------------------------------------------------
   1 K     x       0.9751      0.0000     -0.0677
           y       0.0000      1.0397      0.0000
           z      -0.0658      0.0000      0.9626
-------------------------------------------------------------------------------
   2 Ca    x       2.3253      0.0150     -0.0608
           y      -0.0119      2.2728     -0.0496
           z       0.0271      0.0603      2.3263
-------------------------------------------------------------------------------
   3 F     x      -0.9574      0.0000      0.0317
           y       0.0000     -1.3562      0.0000
           z       0.0622      0.0000     -0.9308
-------------------------------------------------------------------------------
   4 F     x      -1.1714      0.0293     -0.2078
           y       0.0365     -0.9782     -0.0234
           z      -0.2043     -0.0217     -1.1790
-------------------------------------------------------------------------------




  Elastic Constant Matrix: (Units=GPa)

-------------------------------------------------------------------------------
  Indices      1         2         3         4         5         6    
-------------------------------------------------------------------------------
       1    216.1550  100.3466   83.3082    0.0000    0.0000    0.0000
       2    100.3466  209.4025  112.3974    0.0000    0.0000    0.0000
       3     83.3082  112.3974  233.5109    0.0000    0.0000    0.0000
       4      0.0000    0.0000    0.0000   82.9048    0.0000    0.0000
       5      0.0000    0.0000    0.0000    0.0000   44.6979    0.0000
       6      0.0000    0.0000    0.0000    0.0000    0.0000   94.6903
-------------------------------------------------------------------------------


  Elastic Compliance Matrix: (Units=1/GPa)

-------------------------------------------------------------------------------
  Indices      1         2         3         4         5         6    
-------------------------------------------------------------------------------
       1    0.006133 -0.002379 -0.001043  0.000000  0.000000  0.000000
       2   -0.002379  0.007362 -0.002695  0.000000  0.000000  0.000000
       3   -0.001043 -0.002695  0.005952  0.000000  0.000000  0.000000
       4    0.000000  0.000000  0.000000  0.012062  0.000000  0.000000
       5    0.000000  0.000000  0.000000  0.000000  0.022372  0.000000
       6    0.000000  0.000000  0.000000  0.000000  0.000000  0.010561
-------------------------------------------------------------------------------

  Mechanical properties :

-------------------------------------------------------------------------------
  Convention :                    Reuss         Voigt         Hill
-------------------------------------------------------------------------------
  Bulk  Modulus (GPa)     =     138.64064     139.01921     138.82992
  Shear Modulus (GPa)     =      63.22781      68.65971      65.94376
-------------------------------------------------------------------------------
  Velocity S-wave (km/s)  =       3.93719       4.10282       4.02086
  Velocity P-wave (km/s)  =       7.39316       7.51846       7.45608
-------------------------------------------------------------------------------
  Compressibility (1/GPa) =    0.00721289
-------------------------------------------------------------------------------
  Stress axis :                     x             y             z
-------------------------------------------------------------------------------
  Youngs Moduli (GPa)     =     163.06155     135.83219     168.02197
-------------------------------------------------------------------------------
  Poissons Ratio (x)      =                     0.32316       0.17521
  Poissons Ratio (y)      =       0.38794                     0.45279
  Poissons Ratio (z)      =       0.17003       0.36605
-------------------------------------------------------------------------------


  Piezoelectric Strain Matrix: (Units=C/m**2)

-------------------------------------------------------------------------------
  Indices      1         2         3         4         5         6    
-------------------------------------------------------------------------------
       x     0.00000   0.00000   0.00000   0.00000   0.00000   0.00000
       y     0.00000   0.00000   0.00000   0.00000   0.00000   0.00000
       z     0.00000   0.00000   0.00000   0.00000   0.00000   0.00000
-------------------------------------------------------------------------------


  Piezoelectric Stress Matrix: (Units=10**-11 C/N)

-------------------------------------------------------------------------------
  Indices      1         2         3         4         5         6    
-------------------------------------------------------------------------------
       x     0.00000   0.00000   0.00000   0.00000   0.00000   0.00000
       y     0.00000   0.00000   0.00000   0.00000   0.00000   0.00000
       z     0.00000   0.00000   0.00000   0.00000   0.00000   0.00000
-------------------------------------------------------------------------------


  Static dielectric constant tensor : 

-------------------------------------------------------------------------------
              x         y         z
-------------------------------------------------------------------------------
       x     5.15582   0.00000   0.00000
       y     0.00000   4.88707   0.00000
       z     0.00000   0.00000   4.90953
--------------------------------------------------------------------------------

  High frequency dielectric constant tensor : 

-------------------------------------------------------------------------------
              x         y         z
-------------------------------------------------------------------------------
       x     1.74731   0.00000   0.00000
       y     0.00000   1.74989   0.00000
       z     0.00000   0.00000   1.74455
-------------------------------------------------------------------------------

  Static refractive indices : 

-------------------------------------------------------------------------------
    1 =    2.21067      2 =    2.21575      3 =    2.27064
-------------------------------------------------------------------------------

  High frequency refractive indices : 

-------------------------------------------------------------------------------
    1 =    1.32081      2 =    1.32186      3 =    1.32283
-------------------------------------------------------------------------------


  Time to end of optimisation =       0.0593 seconds


  Peak dynamic memory used =       0.73 MB 


  Timing analysis for GULP :

--------------------------------------------------------------------------------
  Task / Subroutine                                          Time (Seconds)
--------------------------------------------------------------------------------
  Calculation of reciprocal space energy and derivatives          0.0027
  Calculation of reciprocal space energy using symmetry           0.0052
  Calculation of real space energy and derivatives                0.0127
  Calculation of real space energy using symmetry                 0.0341
  Symmetry generation of equivalent positions                     0.0004
--------------------------------------------------------------------------------
  Total CPU time                                                  0.0593
--------------------------------------------------------------------------------


  CIF file written as perov.cif                                               


  Job Finished at 09:36.02  6th April      2017                               

