********************************************************************************
*                       GENERAL UTILITY LATTICE PROGRAM                        *
*                                 Julian Gale                                  *
*                      Nanochemistry Research Institute                        *
*                           Department of Chemistry                            *
*                    Curtin University, Western Australia                      *
********************************************************************************
* Version = 4.3.2 * Last modified =  3rd March 2015                            *
********************************************************************************
*  optimise     - perform optimisation run                                     *
*  cell_only    - only optimise unit cell                                      *
*  property     - calculate properties for final geometry                      *
********************************************************************************

  Job Started  at 09:35.57  6th April      2017                               

  Number of CPUs =     1


  Total number of configurations input =   1

********************************************************************************
*  Input for Configuration =   1                                               *
********************************************************************************

  Formula = K4Ca4F12                                                    

  Number of irreducible atoms/shells =       6


  Total number atoms/shells =      32

  Dimensionality = 3               :  Bulk   


  Symmetry :

  Crystal family                   :  Orthorhombic
  Crystal class  (Groth - 1921)    :  Orthorhombic Bipyramidal             

  Space group (centrosymmetric)    :  P N M A         

  Patterson group                  :  P m m m  

  Cartesian lattice vectors (Angstroms) :

        6.223500    0.000000    0.000000
        0.000000    8.710300    0.000000
        0.000000    0.000000    6.118000

  Cell parameters (Angstroms/Degrees):

  a =       6.2235    alpha =  90.0000
  b =       8.7103    beta  =  90.0000
  c =       6.1180    gamma =  90.0000

  Initial cell volume =         331.647921 Angs**3

  Temperature of configuration =  0.000     K 

  Pressure of configuration =         0.000 GPa 

  Fractional coordinates of asymmetric unit :

--------------------------------------------------------------------------------
   No.  Atomic       x           y          z         Charge      Occupancy
        Label      (Frac)      (Frac)     (Frac)        (e)         (Frac)  
--------------------------------------------------------------------------------
      1 K     c    0.042000    0.250000    0.490600     0.60000    1.000000    
      2 Ca    c    0.000000    0.000000    0.000000     1.80000    1.000000    
      3 F     c    0.471500    0.250000    0.581200     0.37800    1.000000    
      4 F     c    0.291600    0.040400    0.206800     0.37800    1.000000    
      5 F     s    0.471500    0.250000    0.581200    -1.17800    1.000000    
      6 F     s    0.291600    0.040400    0.206800    -1.17800    1.000000    
--------------------------------------------------------------------------------



********************************************************************************
*  General input information                                                   *
********************************************************************************

  Species output for all configurations : 

--------------------------------------------------------------------------------
  Species    Type    Atomic    Atomic    Charge       Radii (Angs)     Library
                     Number     Mass       (e)     Cova   Ionic  VDW   Symbol
--------------------------------------------------------------------------------
    K        Core       19      39.10   0.600000   1.330  0.000  2.800          
    Ca       Core       20      40.08   1.800000   0.990  0.000  2.750          
    F        Core        9      19.00   0.378000   0.710  0.000  1.300          
    F        Shell       9       0.00  -1.178000   0.710  0.000  1.300          
--------------------------------------------------------------------------------


  Lattice summation method               =    Ewald          (3-D)
                                         =    Parry          (2-D)
                                         =    Saunders et al (1-D)
  Accuracy factor for lattice sums       =   12.000


  Time limit = Infinity

  Maximum range for interatomic potentials =    100000.000000 Angstroms

  General interatomic potentials :

--------------------------------------------------------------------------------
Atom  Types   Potential         A         B         C         D     Cutoffs(Ang)
  1     2                                                            Min    Max 
--------------------------------------------------------------------------------
K    c K    c Buckingham    0.219E+04 0.192      0.00      0.00     0.000 10.000
Ca   c F    s Buckingham    0.148E+04 0.266      0.00      0.00     0.000 10.000
F    s F    s Buckingham     912.     0.271      13.8      0.00     0.000 10.000
K    c F    s Buckingham    0.352E+04 0.267      0.00      0.00     0.000 10.000
F    c F    s Spring (c-s)   17.8      0.00      0.00      0.00     0.000  0.800
--------------------------------------------------------------------------------

********************************************************************************
*  Output for configuration   1                                                *
********************************************************************************


  Components of energy : 

--------------------------------------------------------------------------------
  Interatomic potentials     =          10.66009013 eV
  Monopole - monopole (real) =         -49.77156415 eV
  Monopole - monopole (recip)=         -61.23531033 eV
  Monopole - monopole (total)=        -111.00687449 eV
--------------------------------------------------------------------------------
  Total lattice energy       =        -100.34678436 eV
--------------------------------------------------------------------------------
  Total lattice energy       =           -9681.9307 kJ/(mole unit cells)
--------------------------------------------------------------------------------


  Number of variables =        3

  Maximum number of calculations  =          1000
  Maximum Hessian update interval =            10
  Maximum step size               =   1.000000000
  Maximum parameter tolerance     =   0.000010000
  Maximum function  tolerance     =   0.000010000
  Maximum gradient  tolerance     =   0.001000000
  Maximum gradient  component     =   0.010000000

  Symmetry constrained optimisation

  Symmetry used for second derivatives

  Cell parameters to be optimised using strains

  Newton-Raphson optimiser to be used

  BFGS hessian update to be used

  Start of bulk optimisation :

  Cycle:      0 Energy:      -100.346784  Gnorm:      2.220256  CPU:    0.007
  ** Hessian calculated **
  Cycle:      1 Energy:      -100.438188  Gnorm:      0.031330  CPU:    0.015
  Cycle:      2 Energy:      -100.438221  Gnorm:      0.005075  CPU:    0.021


  **** Optimisation achieved ****


  Final energy =    -100.43822183 eV
  Final Gnorm  =       0.00013783

  Components of energy : 

--------------------------------------------------------------------------------
  Interatomic potentials     =          12.25454130 eV
  Monopole - monopole (real) =         -50.52528896 eV
  Monopole - monopole (recip)=         -62.16747417 eV
  Monopole - monopole (total)=        -112.69276313 eV
--------------------------------------------------------------------------------
  Total lattice energy       =        -100.43822183 eV
--------------------------------------------------------------------------------
  Total lattice energy       =           -9690.7531 kJ/(mole unit cells)
--------------------------------------------------------------------------------

  Final asymmetric unit coordinates :

--------------------------------------------------------------------------------
   No.  Atomic        x           y           z         Radius
        Label       (Frac)      (Frac)      (Frac)       (Angs) 
--------------------------------------------------------------------------------
     1  K     c     0.042000    0.250000    0.490600    0.000000
     2  Ca    c     0.000000    0.000000    0.000000    0.000000
     3  F     c     0.471500    0.250000    0.581200    0.000000
     4  F     c     0.291600    0.040400    0.206800    0.000000
     5  F     s     0.471500    0.250000    0.581200    0.000000
     6  F     s     0.291600    0.040400    0.206800    0.000000
--------------------------------------------------------------------------------

  Final Cartesian lattice vectors (Angstroms) :

        6.147660    0.000000    0.000000
        0.000000    8.534746    0.000000
        0.000000    0.000000    6.040709


  Final cell parameters and derivatives :

--------------------------------------------------------------------------------
       a            6.147660 Angstrom     dE/de1(xx)     0.000265 eV/strain
       b            8.534746 Angstrom     dE/de2(yy)     0.000174 eV/strain
       c            6.040709 Angstrom     dE/de3(zz)     0.000266 eV/strain
       alpha       90.000000 Degrees      dE/de4(yz)     0.000000 eV/strain
       beta        90.000000 Degrees      dE/de5(xz)     0.000000 eV/strain
       gamma       90.000000 Degrees      dE/de6(xy)     0.000000 eV/strain
--------------------------------------------------------------------------------

  Primitive cell volume =           316.948229 Angs**3

  Density of cell =      2.853915 g/cm**3

  Non-primitive cell volume =           316.948229 Angs**3


  Final internal derivatives :

--------------------------------------------------------------------------------
   No.  Atomic          a             b             c           Radius
        Label          (eV)          (eV)          (eV)        (eV/Angs)
--------------------------------------------------------------------------------
      1 K     c       0.000000      0.000000      0.000000      0.000000
      2 Ca    c       0.000000      0.000000      0.000000      0.000000
      3 F     c       0.000000      0.000000      0.000000      0.000000
      4 F     c       0.000000      0.000000      0.000000      0.000000
      5 F     s       0.000000      0.000000      0.000000      0.000000
      6 F     s       0.000000      0.000000      0.000000      0.000000
--------------------------------------------------------------------------------
  Maximum abs         0.000000      0.000000      0.000000      0.000000
--------------------------------------------------------------------------------


  Born effective charge tensors : 

-------------------------------------------------------------------------------
  Atom             x           y             z
-------------------------------------------------------------------------------
   1 K     x       0.4742      0.0000     -0.0411
           y       0.0000      0.5087      0.0000
           z      -0.0380      0.0000      0.4660
-------------------------------------------------------------------------------
   2 Ca    x       1.6405      0.0081     -0.0243
           y      -0.0026      1.6109     -0.0146
           z       0.0077      0.0234      1.6419
-------------------------------------------------------------------------------
   3 F     x      -0.6308      0.0000      0.0237
           y       0.0000     -0.8362      0.0000
           z       0.0348      0.0000     -0.6107
-------------------------------------------------------------------------------
   4 F     x      -0.7420      0.0193     -0.1100
           y       0.0223     -0.6417     -0.0138
           z      -0.1084     -0.0131     -0.7486
-------------------------------------------------------------------------------




  Elastic Constant Matrix: (Units=GPa)

-------------------------------------------------------------------------------
  Indices      1         2         3         4         5         6    
-------------------------------------------------------------------------------
       1     66.6417   29.4594   35.1013    0.0000    0.0000    0.0000
       2     29.4594   72.8929   34.3191    0.0000    0.0000    0.0000
       3     35.1013   34.3191   66.9984    0.0000    0.0000    0.0000
       4      0.0000    0.0000    0.0000   19.8590    0.0000    0.0000
       5      0.0000    0.0000    0.0000    0.0000   18.2716    0.0000
       6      0.0000    0.0000    0.0000    0.0000    0.0000   24.1427
-------------------------------------------------------------------------------


  Elastic Compliance Matrix: (Units=1/GPa)

-------------------------------------------------------------------------------
  Indices      1         2         3         4         5         6    
-------------------------------------------------------------------------------
       1    0.021801 -0.004524 -0.009104  0.000000  0.000000  0.000000
       2   -0.004524  0.019018 -0.007371  0.000000  0.000000  0.000000
       3   -0.009104 -0.007371  0.023471  0.000000  0.000000  0.000000
       4    0.000000  0.000000  0.000000  0.050355  0.000000  0.000000
       5    0.000000  0.000000  0.000000  0.000000  0.054730  0.000000
       6    0.000000  0.000000  0.000000  0.000000  0.000000  0.041420
-------------------------------------------------------------------------------

  Mechanical properties :

-------------------------------------------------------------------------------
  Convention :                    Reuss         Voigt         Hill
-------------------------------------------------------------------------------
  Bulk  Modulus (GPa)     =      44.86232      44.92138      44.89185
  Shear Modulus (GPa)     =      19.21413      19.63155      19.42284
-------------------------------------------------------------------------------
  Velocity S-wave (km/s)  =       2.59472       2.62275       2.60877
  Velocity P-wave (km/s)  =       4.96954       4.99119       4.98038
-------------------------------------------------------------------------------
  Compressibility (1/GPa) =    0.02229042
-------------------------------------------------------------------------------
  Stress axis :                     x             y             z
-------------------------------------------------------------------------------
  Youngs Moduli (GPa)     =      45.86940      52.58250      42.60502
-------------------------------------------------------------------------------
  Poissons Ratio (x)      =                     0.23790       0.38789
  Poissons Ratio (y)      =       0.20753                     0.31405
  Poissons Ratio (z)      =       0.41761       0.38760
-------------------------------------------------------------------------------


  Piezoelectric Strain Matrix: (Units=C/m**2)

-------------------------------------------------------------------------------
  Indices      1         2         3         4         5         6    
-------------------------------------------------------------------------------
       x     0.00000   0.00000   0.00000   0.00000   0.00000   0.00000
       y     0.00000   0.00000   0.00000   0.00000   0.00000   0.00000
       z     0.00000   0.00000   0.00000   0.00000   0.00000   0.00000
-------------------------------------------------------------------------------


  Piezoelectric Stress Matrix: (Units=10**-11 C/N)

-------------------------------------------------------------------------------
  Indices      1         2         3         4         5         6    
-------------------------------------------------------------------------------
       x     0.00000   0.00000   0.00000   0.00000   0.00000   0.00000
       y     0.00000   0.00000   0.00000   0.00000   0.00000   0.00000
       z     0.00000   0.00000   0.00000   0.00000   0.00000   0.00000
-------------------------------------------------------------------------------


  Static dielectric constant tensor : 

-------------------------------------------------------------------------------
              x         y         z
-------------------------------------------------------------------------------
       x     3.48696   0.00000   0.00000
       y     0.00000   3.38563   0.00000
       z     0.00000   0.00000   3.31044
--------------------------------------------------------------------------------

  High frequency dielectric constant tensor : 

-------------------------------------------------------------------------------
              x         y         z
-------------------------------------------------------------------------------
       x     1.52217   0.00000   0.00000
       y     0.00000   1.52328   0.00000
       z     0.00000   0.00000   1.52047
-------------------------------------------------------------------------------

  Static refractive indices : 

-------------------------------------------------------------------------------
    1 =    1.81946      2 =    1.84001      3 =    1.86734
-------------------------------------------------------------------------------

  High frequency refractive indices : 

-------------------------------------------------------------------------------
    1 =    1.23307      2 =    1.23376      3 =    1.23421
-------------------------------------------------------------------------------


  Time to end of optimisation =       0.0470 seconds


  Peak dynamic memory used =       0.73 MB 


  Timing analysis for GULP :

--------------------------------------------------------------------------------
  Task / Subroutine                                          Time (Seconds)
--------------------------------------------------------------------------------
  Calculation of reciprocal space energy and derivatives          0.0030
  Calculation of reciprocal space energy using symmetry           0.0030
  Calculation of real space energy and derivatives                0.0146
  Calculation of real space energy using symmetry                 0.0216
  Symmetry generation of equivalent positions                     0.0004
--------------------------------------------------------------------------------
  Total CPU time                                                  0.0471
--------------------------------------------------------------------------------


  CIF file written as perov.cif                                               


  Job Finished at 09:35.57  6th April      2017                               

