********************************************************************************
*                       GENERAL UTILITY LATTICE PROGRAM                        *
*                                 Julian Gale                                  *
*                      Nanochemistry Research Institute                        *
*                           Department of Chemistry                            *
*                    Curtin University, Western Australia                      *
********************************************************************************
* Version = 4.3.2 * Last modified =  3rd March 2015                            *
********************************************************************************
*  optimise     - perform optimisation run                                     *
*  cell_only    - only optimise unit cell                                      *
*  property     - calculate properties for final geometry                      *
********************************************************************************

  Job Started  at 09:35.59  6th April      2017                               

  Number of CPUs =     1


  Total number of configurations input =   1

********************************************************************************
*  Input for Configuration =   1                                               *
********************************************************************************

  Formula = K4Ca4F12                                                    

  Number of irreducible atoms/shells =       6


  Total number atoms/shells =      32

  Dimensionality = 3               :  Bulk   


  Symmetry :

  Crystal family                   :  Orthorhombic
  Crystal class  (Groth - 1921)    :  Orthorhombic Bipyramidal             

  Space group (centrosymmetric)    :  P N M A         

  Patterson group                  :  P m m m  

  Cartesian lattice vectors (Angstroms) :

        6.223500    0.000000    0.000000
        0.000000    8.710300    0.000000
        0.000000    0.000000    6.118000

  Cell parameters (Angstroms/Degrees):

  a =       6.2235    alpha =  90.0000
  b =       8.7103    beta  =  90.0000
  c =       6.1180    gamma =  90.0000

  Initial cell volume =         331.647921 Angs**3

  Temperature of configuration =  0.000     K 

  Pressure of configuration =         0.000 GPa 

  Fractional coordinates of asymmetric unit :

--------------------------------------------------------------------------------
   No.  Atomic       x           y          z         Charge      Occupancy
        Label      (Frac)      (Frac)     (Frac)        (e)         (Frac)  
--------------------------------------------------------------------------------
      1 K     c    0.042000    0.250000    0.490600     0.80000    1.000000    
      2 Ca    c    0.000000    0.000000    0.000000     2.30000    1.000000    
      3 F     c    0.471500    0.250000    0.581200     0.37800    1.000000    
      4 F     c    0.291600    0.040400    0.206800     0.37800    1.000000    
      5 F     s    0.471500    0.250000    0.581200    -1.41133    1.000000    
      6 F     s    0.291600    0.040400    0.206800    -1.41133    1.000000    
--------------------------------------------------------------------------------



********************************************************************************
*  General input information                                                   *
********************************************************************************

  Species output for all configurations : 

--------------------------------------------------------------------------------
  Species    Type    Atomic    Atomic    Charge       Radii (Angs)     Library
                     Number     Mass       (e)     Cova   Ionic  VDW   Symbol
--------------------------------------------------------------------------------
    K        Core       19      39.10   0.800000   1.330  0.000  2.800          
    Ca       Core       20      40.08   2.300000   0.990  0.000  2.750          
    F        Core        9      19.00   0.378000   0.710  0.000  1.300          
    F        Shell       9       0.00  -1.411333   0.710  0.000  1.300          
--------------------------------------------------------------------------------


  Lattice summation method               =    Ewald          (3-D)
                                         =    Parry          (2-D)
                                         =    Saunders et al (1-D)
  Accuracy factor for lattice sums       =   12.000


  Time limit = Infinity

  Maximum range for interatomic potentials =    100000.000000 Angstroms

  General interatomic potentials :

--------------------------------------------------------------------------------
Atom  Types   Potential         A         B         C         D     Cutoffs(Ang)
  1     2                                                            Min    Max 
--------------------------------------------------------------------------------
K    c K    c Buckingham    0.219E+04 0.192      0.00      0.00     0.000 10.000
Ca   c F    s Buckingham    0.148E+04 0.266      0.00      0.00     0.000 10.000
F    s F    s Buckingham     912.     0.271      13.8      0.00     0.000 10.000
K    c F    s Buckingham    0.352E+04 0.267      0.00      0.00     0.000 10.000
F    c F    s Spring (c-s)   25.5      0.00      0.00      0.00     0.000  0.800
--------------------------------------------------------------------------------

********************************************************************************
*  Output for configuration   1                                                *
********************************************************************************


  Components of energy : 

--------------------------------------------------------------------------------
  Interatomic potentials     =          10.66009013 eV
  Monopole - monopole (real) =         -82.48626154 eV
  Monopole - monopole (recip)=        -101.32962598 eV
  Monopole - monopole (total)=        -183.81588752 eV
--------------------------------------------------------------------------------
  Total lattice energy       =        -173.15579739 eV
--------------------------------------------------------------------------------
  Total lattice energy       =          -16706.8875 kJ/(mole unit cells)
--------------------------------------------------------------------------------


  Number of variables =        3

  Maximum number of calculations  =          1000
  Maximum Hessian update interval =            10
  Maximum step size               =   1.000000000
  Maximum parameter tolerance     =   0.000010000
  Maximum function  tolerance     =   0.000010000
  Maximum gradient  tolerance     =   0.001000000
  Maximum gradient  component     =   0.010000000

  Symmetry constrained optimisation

  Symmetry used for second derivatives

  Cell parameters to be optimised using strains

  Newton-Raphson optimiser to be used

  BFGS hessian update to be used

  Start of bulk optimisation :

  Cycle:      0 Energy:      -173.155797  Gnorm:     16.225916  CPU:    0.007
  ** Hessian calculated **
  Cycle:      1 Energy:      -177.009416  Gnorm:      5.737081  CPU:    0.013
  Cycle:      2 Energy:      -177.304857  Gnorm:      0.718690  CPU:    0.020
  Cycle:      3 Energy:      -177.317106  Gnorm:      0.060146  CPU:    0.027
  Cycle:      4 Energy:      -177.317148  Gnorm:      0.001105  CPU:    0.033


  **** Optimisation achieved ****


  Final energy =    -177.31714792 eV
  Final Gnorm  =       0.00013768

  Components of energy : 

--------------------------------------------------------------------------------
  Interatomic potentials     =          23.42110195 eV
  Monopole - monopole (real) =         -90.07620098 eV
  Monopole - monopole (recip)=        -110.66204889 eV
  Monopole - monopole (total)=        -200.73824987 eV
--------------------------------------------------------------------------------
  Total lattice energy       =        -177.31714792 eV
--------------------------------------------------------------------------------
  Total lattice energy       =          -17108.3942 kJ/(mole unit cells)
--------------------------------------------------------------------------------

  Final asymmetric unit coordinates :

--------------------------------------------------------------------------------
   No.  Atomic        x           y           z         Radius
        Label       (Frac)      (Frac)      (Frac)       (Angs) 
--------------------------------------------------------------------------------
     1  K     c     0.042000    0.250000    0.490600    0.000000
     2  Ca    c     0.000000    0.000000    0.000000    0.000000
     3  F     c     0.471500    0.250000    0.581200    0.000000
     4  F     c     0.291600    0.040400    0.206800    0.000000
     5  F     s     0.471500    0.250000    0.581200    0.000000
     6  F     s     0.291600    0.040400    0.206800    0.000000
--------------------------------------------------------------------------------

  Final Cartesian lattice vectors (Angstroms) :

        5.717640    0.000000    0.000000
        0.000000    7.930765    0.000000
        0.000000    0.000000    5.615047


  Final cell parameters and derivatives :

--------------------------------------------------------------------------------
       a            5.717640 Angstrom     dE/de1(xx)     0.000295 eV/strain
       b            7.930765 Angstrom     dE/de2(yy)     0.000009 eV/strain
       c            5.615047 Angstrom     dE/de3(zz)    -0.000289 eV/strain
       alpha       90.000000 Degrees      dE/de4(yz)     0.000000 eV/strain
       beta        90.000000 Degrees      dE/de5(xz)     0.000000 eV/strain
       gamma       90.000000 Degrees      dE/de6(xy)     0.000000 eV/strain
--------------------------------------------------------------------------------

  Primitive cell volume =           254.615744 Angs**3

  Density of cell =      3.552582 g/cm**3

  Non-primitive cell volume =           254.615744 Angs**3


  Final internal derivatives :

--------------------------------------------------------------------------------
   No.  Atomic          a             b             c           Radius
        Label          (eV)          (eV)          (eV)        (eV/Angs)
--------------------------------------------------------------------------------
      1 K     c       0.000000      0.000000      0.000000      0.000000
      2 Ca    c       0.000000      0.000000      0.000000      0.000000
      3 F     c       0.000000      0.000000      0.000000      0.000000
      4 F     c       0.000000      0.000000      0.000000      0.000000
      5 F     s       0.000000      0.000000      0.000000      0.000000
      6 F     s       0.000000      0.000000      0.000000      0.000000
--------------------------------------------------------------------------------
  Maximum abs         0.000000      0.000000      0.000000      0.000000
--------------------------------------------------------------------------------


  Born effective charge tensors : 

-------------------------------------------------------------------------------
  Atom             x           y             z
-------------------------------------------------------------------------------
   1 K     x       0.5912      0.0000     -0.0648
           y       0.0000      0.6435      0.0000
           z      -0.0574      0.0000      0.5811
-------------------------------------------------------------------------------
   2 Ca    x       2.1479      0.0131     -0.0530
           y      -0.0105      2.1030     -0.0404
           z       0.0225      0.0512      2.1497
-------------------------------------------------------------------------------
   3 F     x      -0.7827      0.0000      0.0324
           y       0.0000     -1.1507      0.0000
           z       0.0557      0.0000     -0.7574
-------------------------------------------------------------------------------
   4 F     x      -0.9782      0.0266     -0.1940
           y       0.0314     -0.7979     -0.0164
           z      -0.1911     -0.0145     -0.9867
-------------------------------------------------------------------------------




  Elastic Constant Matrix: (Units=GPa)

-------------------------------------------------------------------------------
  Indices      1         2         3         4         5         6    
-------------------------------------------------------------------------------
       1    136.6830   63.3285   62.7176    0.0000    0.0000    0.0000
       2     63.3285  139.4865   73.7698    0.0000    0.0000    0.0000
       3     62.7176   73.7698  142.2987    0.0000    0.0000    0.0000
       4      0.0000    0.0000    0.0000   47.1758    0.0000    0.0000
       5      0.0000    0.0000    0.0000    0.0000   30.8938    0.0000
       6      0.0000    0.0000    0.0000    0.0000    0.0000   55.9292
-------------------------------------------------------------------------------


  Elastic Compliance Matrix: (Units=1/GPa)

-------------------------------------------------------------------------------
  Indices      1         2         3         4         5         6    
-------------------------------------------------------------------------------
       1    0.010034 -0.003054 -0.002839  0.000000  0.000000  0.000000
       2   -0.003054  0.010807 -0.004256  0.000000  0.000000  0.000000
       3   -0.002839 -0.004256  0.010485  0.000000  0.000000  0.000000
       4    0.000000  0.000000  0.000000  0.021197  0.000000  0.000000
       5    0.000000  0.000000  0.000000  0.000000  0.032369  0.000000
       6    0.000000  0.000000  0.000000  0.000000  0.000000  0.017880
-------------------------------------------------------------------------------

  Mechanical properties :

-------------------------------------------------------------------------------
  Convention :                    Reuss         Voigt         Hill
-------------------------------------------------------------------------------
  Bulk  Modulus (GPa)     =      90.68619      90.90002      90.79310
  Shear Modulus (GPa)     =      39.44872      41.37658      40.41265
-------------------------------------------------------------------------------
  Velocity S-wave (km/s)  =       3.33230       3.41276       3.37277
  Velocity P-wave (km/s)  =       6.35079       6.41219       6.38156
-------------------------------------------------------------------------------
  Compressibility (1/GPa) =    0.01102704
-------------------------------------------------------------------------------
  Stress axis :                     x             y             z
-------------------------------------------------------------------------------
  Youngs Moduli (GPa)     =      99.66155      92.53492      95.37080
-------------------------------------------------------------------------------
  Poissons Ratio (x)      =                     0.28260       0.27078
  Poissons Ratio (y)      =       0.30436                     0.40593
  Poissons Ratio (z)      =       0.28296       0.39386
-------------------------------------------------------------------------------


  Piezoelectric Strain Matrix: (Units=C/m**2)

-------------------------------------------------------------------------------
  Indices      1         2         3         4         5         6    
-------------------------------------------------------------------------------
       x     0.00000   0.00000   0.00000   0.00000   0.00000   0.00000
       y     0.00000   0.00000   0.00000   0.00000   0.00000   0.00000
       z     0.00000   0.00000   0.00000   0.00000   0.00000   0.00000
-------------------------------------------------------------------------------


  Piezoelectric Stress Matrix: (Units=10**-11 C/N)

-------------------------------------------------------------------------------
  Indices      1         2         3         4         5         6    
-------------------------------------------------------------------------------
       x     0.00000   0.00000   0.00000   0.00000   0.00000   0.00000
       y     0.00000   0.00000   0.00000   0.00000   0.00000   0.00000
       z     0.00000   0.00000   0.00000   0.00000   0.00000   0.00000
-------------------------------------------------------------------------------


  Static dielectric constant tensor : 

-------------------------------------------------------------------------------
              x         y         z
-------------------------------------------------------------------------------
       x     4.44118   0.00000   0.00000
       y     0.00000   4.11557   0.00000
       z     0.00000   0.00000   4.23955
--------------------------------------------------------------------------------

  High frequency dielectric constant tensor : 

-------------------------------------------------------------------------------
              x         y         z
-------------------------------------------------------------------------------
       x     1.64895   0.00000   0.00000
       y     0.00000   1.65061   0.00000
       z     0.00000   0.00000   1.64679
-------------------------------------------------------------------------------

  Static refractive indices : 

-------------------------------------------------------------------------------
    1 =    2.02869      2 =    2.05902      3 =    2.10741
-------------------------------------------------------------------------------

  High frequency refractive indices : 

-------------------------------------------------------------------------------
    1 =    1.28327      2 =    1.28412      3 =    1.28476
-------------------------------------------------------------------------------


  Time to end of optimisation =       0.0558 seconds


  Peak dynamic memory used =       0.73 MB 


  Timing analysis for GULP :

--------------------------------------------------------------------------------
  Task / Subroutine                                          Time (Seconds)
--------------------------------------------------------------------------------
  Calculation of reciprocal space energy and derivatives          0.0026
  Calculation of reciprocal space energy using symmetry           0.0046
  Calculation of real space energy and derivatives                0.0131
  Calculation of real space energy using symmetry                 0.0309
  Symmetry generation of equivalent positions                     0.0004
--------------------------------------------------------------------------------
  Total CPU time                                                  0.0558
--------------------------------------------------------------------------------


  CIF file written as perov.cif                                               


  Job Finished at 09:35.59  6th April      2017                               

