********************************************************************************
*                       GENERAL UTILITY LATTICE PROGRAM                        *
*                                 Julian Gale                                  *
*                      Nanochemistry Research Institute                        *
*                           Department of Chemistry                            *
*                    Curtin University, Western Australia                      *
********************************************************************************
* Version = 4.3.2 * Last modified =  3rd March 2015                            *
********************************************************************************
*  optimise     - perform optimisation run                                     *
*  cell_only    - only optimise unit cell                                      *
*  property     - calculate properties for final geometry                      *
********************************************************************************

  Job Started  at 09:35.59  6th April      2017                               

  Number of CPUs =     1


  Total number of configurations input =   1

********************************************************************************
*  Input for Configuration =   1                                               *
********************************************************************************

  Formula = K4Ca4F12                                                    

  Number of irreducible atoms/shells =       6


  Total number atoms/shells =      32

  Dimensionality = 3               :  Bulk   


  Symmetry :

  Crystal family                   :  Orthorhombic
  Crystal class  (Groth - 1921)    :  Orthorhombic Bipyramidal             

  Space group (centrosymmetric)    :  P N M A         

  Patterson group                  :  P m m m  

  Cartesian lattice vectors (Angstroms) :

        6.223500    0.000000    0.000000
        0.000000    8.710300    0.000000
        0.000000    0.000000    6.118000

  Cell parameters (Angstroms/Degrees):

  a =       6.2235    alpha =  90.0000
  b =       8.7103    beta  =  90.0000
  c =       6.1180    gamma =  90.0000

  Initial cell volume =         331.647921 Angs**3

  Temperature of configuration =  0.000     K 

  Pressure of configuration =         0.000 GPa 

  Fractional coordinates of asymmetric unit :

--------------------------------------------------------------------------------
   No.  Atomic       x           y          z         Charge      Occupancy
        Label      (Frac)      (Frac)     (Frac)        (e)         (Frac)  
--------------------------------------------------------------------------------
      1 K     c    0.042000    0.250000    0.490600     0.90000    1.000000    
      2 Ca    c    0.000000    0.000000    0.000000     2.10000    1.000000    
      3 F     c    0.471500    0.250000    0.581200     0.37800    1.000000    
      4 F     c    0.291600    0.040400    0.206800     0.37800    1.000000    
      5 F     s    0.471500    0.250000    0.581200    -1.37800    1.000000    
      6 F     s    0.291600    0.040400    0.206800    -1.37800    1.000000    
--------------------------------------------------------------------------------



********************************************************************************
*  General input information                                                   *
********************************************************************************

  Species output for all configurations : 

--------------------------------------------------------------------------------
  Species    Type    Atomic    Atomic    Charge       Radii (Angs)     Library
                     Number     Mass       (e)     Cova   Ionic  VDW   Symbol
--------------------------------------------------------------------------------
    K        Core       19      39.10   0.900000   1.330  0.000  2.800          
    Ca       Core       20      40.08   2.100000   0.990  0.000  2.750          
    F        Core        9      19.00   0.378000   0.710  0.000  1.300          
    F        Shell       9       0.00  -1.378000   0.710  0.000  1.300          
--------------------------------------------------------------------------------


  Lattice summation method               =    Ewald          (3-D)
                                         =    Parry          (2-D)
                                         =    Saunders et al (1-D)
  Accuracy factor for lattice sums       =   12.000


  Time limit = Infinity

  Maximum range for interatomic potentials =    100000.000000 Angstroms

  General interatomic potentials :

--------------------------------------------------------------------------------
Atom  Types   Potential         A         B         C         D     Cutoffs(Ang)
  1     2                                                            Min    Max 
--------------------------------------------------------------------------------
K    c K    c Buckingham    0.219E+04 0.192      0.00      0.00     0.000 10.000
Ca   c F    s Buckingham    0.148E+04 0.266      0.00      0.00     0.000 10.000
F    s F    s Buckingham     912.     0.271      13.8      0.00     0.000 10.000
K    c F    s Buckingham    0.352E+04 0.267      0.00      0.00     0.000 10.000
F    c F    s Spring (c-s)   24.3      0.00      0.00      0.00     0.000  0.800
--------------------------------------------------------------------------------

********************************************************************************
*  Output for configuration   1                                                *
********************************************************************************


  Components of energy : 

--------------------------------------------------------------------------------
  Interatomic potentials     =          10.66009013 eV
  Monopole - monopole (real) =         -74.65982375 eV
  Monopole - monopole (recip)=         -91.23687744 eV
  Monopole - monopole (total)=        -165.89670120 eV
--------------------------------------------------------------------------------
  Total lattice energy       =        -155.23661106 eV
--------------------------------------------------------------------------------
  Total lattice energy       =          -14977.9600 kJ/(mole unit cells)
--------------------------------------------------------------------------------


  Number of variables =        3

  Maximum number of calculations  =          1000
  Maximum Hessian update interval =            10
  Maximum step size               =   1.000000000
  Maximum parameter tolerance     =   0.000010000
  Maximum function  tolerance     =   0.000010000
  Maximum gradient  tolerance     =   0.001000000
  Maximum gradient  component     =   0.010000000

  Symmetry constrained optimisation

  Symmetry used for second derivatives

  Cell parameters to be optimised using strains

  Newton-Raphson optimiser to be used

  BFGS hessian update to be used

  Start of bulk optimisation :

  Cycle:      0 Energy:      -155.236611  Gnorm:     12.777313  CPU:    0.007
  ** Hessian calculated **
  Cycle:      1 Energy:      -157.769086  Gnorm:      3.431019  CPU:    0.013
  Cycle:      2 Energy:      -157.870365  Gnorm:      1.189320  CPU:    0.019
  Cycle:      3 Energy:      -157.890830  Gnorm:      0.472376  CPU:    0.025
  Cycle:      4 Energy:      -157.893953  Gnorm:      0.006480  CPU:    0.032


  **** Optimisation achieved ****


  Final energy =    -157.89395394 eV
  Final Gnorm  =       0.00019065

  Components of energy : 

--------------------------------------------------------------------------------
  Interatomic potentials     =          20.51545627 eV
  Monopole - monopole (real) =         -80.28753038 eV
  Monopole - monopole (recip)=         -98.12187983 eV
  Monopole - monopole (total)=        -178.40941021 eV
--------------------------------------------------------------------------------
  Total lattice energy       =        -157.89395394 eV
--------------------------------------------------------------------------------
  Total lattice energy       =          -15234.3529 kJ/(mole unit cells)
--------------------------------------------------------------------------------

  Final asymmetric unit coordinates :

--------------------------------------------------------------------------------
   No.  Atomic        x           y           z         Radius
        Label       (Frac)      (Frac)      (Frac)       (Angs) 
--------------------------------------------------------------------------------
     1  K     c     0.042000    0.250000    0.490600    0.000000
     2  Ca    c     0.000000    0.000000    0.000000    0.000000
     3  F     c     0.471500    0.250000    0.581200    0.000000
     4  F     c     0.291600    0.040400    0.206800    0.000000
     5  F     s     0.471500    0.250000    0.581200    0.000000
     6  F     s     0.291600    0.040400    0.206800    0.000000
--------------------------------------------------------------------------------

  Final Cartesian lattice vectors (Angstroms) :

        5.806022    0.000000    0.000000
        0.000000    8.054465    0.000000
        0.000000    0.000000    5.701273


  Final cell parameters and derivatives :

--------------------------------------------------------------------------------
       a            5.806022 Angstrom     dE/de1(xx)     0.000141 eV/strain
       b            8.054465 Angstrom     dE/de2(yy)     0.000485 eV/strain
       c            5.701273 Angstrom     dE/de3(zz)     0.000269 eV/strain
       alpha       90.000000 Degrees      dE/de4(yz)     0.000000 eV/strain
       beta        90.000000 Degrees      dE/de5(xz)     0.000000 eV/strain
       gamma       90.000000 Degrees      dE/de6(xy)     0.000000 eV/strain
--------------------------------------------------------------------------------

  Primitive cell volume =           266.616595 Angs**3

  Density of cell =      3.392674 g/cm**3

  Non-primitive cell volume =           266.616595 Angs**3


  Final internal derivatives :

--------------------------------------------------------------------------------
   No.  Atomic          a             b             c           Radius
        Label          (eV)          (eV)          (eV)        (eV/Angs)
--------------------------------------------------------------------------------
      1 K     c       0.000000      0.000000      0.000000      0.000000
      2 Ca    c       0.000000      0.000000      0.000000      0.000000
      3 F     c       0.000000      0.000000      0.000000      0.000000
      4 F     c       0.000000      0.000000      0.000000      0.000000
      5 F     s       0.000000      0.000000      0.000000      0.000000
      6 F     s       0.000000      0.000000      0.000000      0.000000
--------------------------------------------------------------------------------
  Maximum abs         0.000000      0.000000      0.000000      0.000000
--------------------------------------------------------------------------------


  Born effective charge tensors : 

-------------------------------------------------------------------------------
  Atom             x           y             z
-------------------------------------------------------------------------------
   1 K     x       0.7385      0.0000     -0.0518
           y       0.0000      0.7856      0.0000
           z      -0.0497      0.0000      0.7281
-------------------------------------------------------------------------------
   2 Ca    x       1.9120      0.0115     -0.0352
           y      -0.0043      1.8728     -0.0239
           z       0.0126      0.0344      1.9133
-------------------------------------------------------------------------------
   3 F     x      -0.7882      0.0000      0.0274
           y       0.0000     -1.0517      0.0000
           z       0.0448      0.0000     -0.7643
-------------------------------------------------------------------------------
   4 F     x      -0.9311      0.0239     -0.1398
           y       0.0288     -0.8033     -0.0191
           z      -0.1375     -0.0182     -0.9386
-------------------------------------------------------------------------------




  Elastic Constant Matrix: (Units=GPa)

-------------------------------------------------------------------------------
  Indices      1         2         3         4         5         6    
-------------------------------------------------------------------------------
       1    119.9456   54.1902   54.0324    0.0000    0.0000    0.0000
       2     54.1902  123.6499   61.5336    0.0000    0.0000    0.0000
       3     54.0324   61.5336  125.5690    0.0000    0.0000    0.0000
       4      0.0000    0.0000    0.0000   41.2001    0.0000    0.0000
       5      0.0000    0.0000    0.0000    0.0000   29.0079    0.0000
       6      0.0000    0.0000    0.0000    0.0000    0.0000   48.1893
-------------------------------------------------------------------------------


  Elastic Compliance Matrix: (Units=1/GPa)

-------------------------------------------------------------------------------
  Indices      1         2         3         4         5         6    
-------------------------------------------------------------------------------
       1    0.011302 -0.003350 -0.003222  0.000000  0.000000  0.000000
       2   -0.003350  0.011689 -0.004286  0.000000  0.000000  0.000000
       3   -0.003222 -0.004286  0.011451  0.000000  0.000000  0.000000
       4    0.000000  0.000000  0.000000  0.024272  0.000000  0.000000
       5    0.000000  0.000000  0.000000  0.000000  0.034473  0.000000
       6    0.000000  0.000000  0.000000  0.000000  0.000000  0.020751
-------------------------------------------------------------------------------

  Mechanical properties :

-------------------------------------------------------------------------------
  Convention :                    Reuss         Voigt         Hill
-------------------------------------------------------------------------------
  Bulk  Modulus (GPa)     =      78.58463      78.74186      78.66325
  Shear Modulus (GPa)     =      35.74113      36.97336      36.35724
-------------------------------------------------------------------------------
  Velocity S-wave (km/s)  =       3.24573       3.30121       3.27359
  Velocity P-wave (km/s)  =       6.09995       6.14329       6.12166
-------------------------------------------------------------------------------
  Compressibility (1/GPa) =    0.01272513
-------------------------------------------------------------------------------
  Stress axis :                     x             y             z
-------------------------------------------------------------------------------
  Youngs Moduli (GPa)     =      88.48153      85.55390      87.33237
-------------------------------------------------------------------------------
  Poissons Ratio (x)      =                     0.28659       0.28135
  Poissons Ratio (y)      =       0.29640                     0.37434
  Poissons Ratio (z)      =       0.28505       0.36672
-------------------------------------------------------------------------------


  Piezoelectric Strain Matrix: (Units=C/m**2)

-------------------------------------------------------------------------------
  Indices      1         2         3         4         5         6    
-------------------------------------------------------------------------------
       x     0.00000   0.00000   0.00000   0.00000   0.00000   0.00000
       y     0.00000   0.00000   0.00000   0.00000   0.00000   0.00000
       z     0.00000   0.00000   0.00000   0.00000   0.00000   0.00000
-------------------------------------------------------------------------------


  Piezoelectric Stress Matrix: (Units=10**-11 C/N)

-------------------------------------------------------------------------------
  Indices      1         2         3         4         5         6    
-------------------------------------------------------------------------------
       x     0.00000   0.00000   0.00000   0.00000   0.00000   0.00000
       y     0.00000   0.00000   0.00000   0.00000   0.00000   0.00000
       z     0.00000   0.00000   0.00000   0.00000   0.00000   0.00000
-------------------------------------------------------------------------------


  Static dielectric constant tensor : 

-------------------------------------------------------------------------------
              x         y         z
-------------------------------------------------------------------------------
       x     4.06329   0.00000   0.00000
       y     0.00000   3.96476   0.00000
       z     0.00000   0.00000   3.86440
--------------------------------------------------------------------------------

  High frequency dielectric constant tensor : 

-------------------------------------------------------------------------------
              x         y         z
-------------------------------------------------------------------------------
       x     1.61889   0.00000   0.00000
       y     0.00000   1.62059   0.00000
       z     0.00000   0.00000   1.61671
-------------------------------------------------------------------------------

  Static refractive indices : 

-------------------------------------------------------------------------------
    1 =    1.96581      2 =    1.99117      3 =    2.01576
-------------------------------------------------------------------------------

  High frequency refractive indices : 

-------------------------------------------------------------------------------
    1 =    1.27150      2 =    1.27236      3 =    1.27302
-------------------------------------------------------------------------------


  Time to end of optimisation =       0.0546 seconds


  Peak dynamic memory used =       0.73 MB 


  Timing analysis for GULP :

--------------------------------------------------------------------------------
  Task / Subroutine                                          Time (Seconds)
--------------------------------------------------------------------------------
  Calculation of reciprocal space energy and derivatives          0.0027
  Calculation of reciprocal space energy using symmetry           0.0044
  Calculation of real space energy and derivatives                0.0129
  Calculation of real space energy using symmetry                 0.0302
  Symmetry generation of equivalent positions                     0.0004
--------------------------------------------------------------------------------
  Total CPU time                                                  0.0546
--------------------------------------------------------------------------------


  CIF file written as perov.cif                                               


  Job Finished at 09:35.59  6th April      2017                               

