********************************************************************************
*                       GENERAL UTILITY LATTICE PROGRAM                        *
*                                 Julian Gale                                  *
*                      Nanochemistry Research Institute                        *
*                           Department of Chemistry                            *
*                    Curtin University, Western Australia                      *
********************************************************************************
* Version = 4.3.2 * Last modified =  3rd March 2015                            *
********************************************************************************
*  optimise     - perform optimisation run                                     *
*  conp         - constant pressure calculation                                *
*  property     - calculate properties for final geometry                      *
********************************************************************************

  Job Started  at 12:49.32 22nd February   2017                               

  Number of CPUs =     1


  Total number of configurations input =   1

********************************************************************************
*  Input for Configuration =   1                                               *
********************************************************************************

  Formula = K2Zn2F6                                                     

  Number of irreducible atoms/shells =       6


  Total number atoms/shells =      16

  Dimensionality = 3               :  Bulk   


  Symmetry :

  Crystal family                   :  Tetragonal  
  Crystal class  (Groth - 1921)    :  Ditetragonal Dipyramidal             

  Space group (centrosymmetric)    :  P 4/M B M       

  Patterson group                  :  P 4/m m m

  Cartesian lattice vectors (Angstroms) :

        4.200000    0.000000    0.000000
        0.000000    4.200000    0.000000
        0.000000    0.000000    4.200000

  Cell parameters (Angstroms/Degrees):

  a =       4.2000    alpha =  90.0000
  b =       4.2000    beta  =  90.0000
  c =       4.2000    gamma =  90.0000

  Initial cell volume =          74.088000 Angs**3

  Temperature of configuration =  0.000     K 

  Pressure of configuration =         0.000 GPa 

  Fractional coordinates of asymmetric unit :

--------------------------------------------------------------------------------
   No.  Atomic       x           y          z         Charge      Occupancy
        Label      (Frac)      (Frac)     (Frac)        (e)         (Frac)  
--------------------------------------------------------------------------------
      1 K     c    0.000000    0.000000    0.000000     0.60000    1.000000    
      2 Zn    c    0.000000    0.500000    0.000000     2.20000    1.000000    
      3 F     c    0.000000    0.500000    0.500000     0.37800    1.000000    
      4 F     c    0.227100 *  0.727100    0.000000     0.37800    1.000000    
      5 F     s    0.000000    0.500000    0.500000    -1.31133    1.000000    
      6 F     s    0.227100 *  0.727100    0.000000    -1.31133    1.000000    
--------------------------------------------------------------------------------


  Constraints : 

--------------------------------------------------------------------------------
  Constraint no.      Unconstrained     Constrained    Coefficient    Offset
                         Variable         Variable
--------------------------------------------------------------------------------
           1              Strain 1        Strain 2       1.00000      0.0000
           2                 4 x             4 y         1.00000      0.5000
           3                 6 x             6 y         1.00000      0.5000
--------------------------------------------------------------------------------


********************************************************************************
*  General input information                                                   *
********************************************************************************

  Species output for all configurations : 

--------------------------------------------------------------------------------
  Species    Type    Atomic    Atomic    Charge       Radii (Angs)     Library
                     Number     Mass       (e)     Cova   Ionic  VDW   Symbol
--------------------------------------------------------------------------------
    K        Core       19      39.10   0.600000   1.330  0.000  2.800          
    Zn       Core       30      65.39   2.200000   1.450  0.000  2.160          
    F        Core        9      19.00   0.378000   0.710  0.000  1.300          
    F        Shell       9       0.00  -1.311333   0.710  0.000  1.300          
--------------------------------------------------------------------------------


  Lattice summation method               =    Ewald          (3-D)
                                         =    Parry          (2-D)
                                         =    Saunders et al (1-D)
  Accuracy factor for lattice sums       =   12.000


  Time limit = Infinity

  Maximum range for interatomic potentials =    100000.000000 Angstroms

  General interatomic potentials :

--------------------------------------------------------------------------------
Atom  Types   Potential         A         B         C         D     Cutoffs(Ang)
  1     2                                                            Min    Max 
--------------------------------------------------------------------------------
K    c K    c Buckingham    0.219E+04 0.192      0.00      0.00     0.000 10.000
Zn   c F    s Buckingham    0.148E+04 0.266      0.00      0.00     0.000 10.000
F    s F    s Buckingham     912.     0.271      13.8      0.00     0.000 10.000
K    c F    s Buckingham    0.352E+04 0.267      0.00      0.00     0.000 10.000
F    c F    s Spring (c-s)   22.0      0.00      0.00      0.00     0.000  0.800
--------------------------------------------------------------------------------

********************************************************************************
*  Output for configuration   1                                                *
********************************************************************************


  Components of energy : 

--------------------------------------------------------------------------------
  Interatomic potentials     =         162.45946484 eV
  Monopole - monopole (real) =         -43.26042966 eV
  Monopole - monopole (recip)=         -65.25515093 eV
  Monopole - monopole (total)=        -108.51558060 eV
--------------------------------------------------------------------------------
  Total lattice energy       =          53.94388425 eV
--------------------------------------------------------------------------------
  Total lattice energy       =            5204.7602 kJ/(mole unit cells)
--------------------------------------------------------------------------------


  Number of variables =        4

  Maximum number of calculations  =          1000
  Maximum Hessian update interval =            10
  Maximum step size               =   1.000000000
  Maximum parameter tolerance     =   0.000010000
  Maximum function  tolerance     =   0.000010000
  Maximum gradient  tolerance     =   0.001000000
  Maximum gradient  component     =   0.010000000

  Symmetry constrained optimisation

  Symmetry used for second derivatives

  Cell parameters to be optimised using strains

  Newton-Raphson optimiser to be used

  BFGS hessian update to be used

  Start of bulk optimisation :

  Cycle:      0 Energy:        53.943884  Gnorm:    206.827045  CPU:    0.005
  ** Hessian calculated **
  Cycle:      1 Energy:       -69.261973  Gnorm:     34.372089  CPU:    0.012
  ** Hessian calculated **
  Cycle:      2 Energy:       -70.753428  Gnorm:     12.091027  CPU:    0.018
  ** Hessian calculated **
  Cycle:      3 Energy:       -70.876247  Gnorm:      4.500398  CPU:    0.023
  Cycle:      4 Energy:       -70.987549  Gnorm:      4.811128  CPU:    0.027
  Cycle:      5 Energy:       -71.273570  Gnorm:      5.388024  CPU:    0.031
  Cycle:      6 Energy:       -71.589312  Gnorm:      3.838130  CPU:    0.035
  Cycle:      7 Energy:       -71.689731  Gnorm:      4.346424  CPU:    0.038
  Cycle:      8 Energy:       -71.888054  Gnorm:      6.856771  CPU:    0.043
  Cycle:      9 Energy:       -72.054735  Gnorm:      5.156102  CPU:    0.046
  Cycle:     10 Energy:       -72.068852  Gnorm:      1.345549  CPU:    0.049
  Cycle:     11 Energy:       -72.069728  Gnorm:      0.055268  CPU:    0.052
  Cycle:     12 Energy:       -72.069756  Gnorm:      0.115753  CPU:    0.055
  ** Hessian calculated **
  Cycle:     13 Energy:       -72.069763  Gnorm:      0.009220  CPU:    0.060


  **** Optimisation achieved ****


  Final energy =     -72.06976335 eV
  Final Gnorm  =       0.00039015

  Components of energy : 

--------------------------------------------------------------------------------
  Interatomic potentials     =          11.25777473 eV
  Monopole - monopole (real) =         -23.15769288 eV
  Monopole - monopole (recip)=         -60.16984519 eV
  Monopole - monopole (total)=         -83.32753807 eV
--------------------------------------------------------------------------------
  Total lattice energy       =         -72.06976335 eV
--------------------------------------------------------------------------------
  Total lattice energy       =           -6953.6305 kJ/(mole unit cells)
--------------------------------------------------------------------------------

  Final asymmetric unit coordinates :

--------------------------------------------------------------------------------
   No.  Atomic        x           y           z         Radius
        Label       (Frac)      (Frac)      (Frac)       (Angs) 
--------------------------------------------------------------------------------
     1  K     c     0.000000    0.000000    0.000000    0.000000
     2  Zn    c     0.000000    0.500000    0.000000    0.000000
     3  F     c     0.000000    0.500000    0.500000    0.000000
     4  F     c     0.311619    0.811619    0.000000    0.000000
     5  F     s     0.000000    0.500000    0.500000    0.000000
     6  F     s     0.318867    0.818867    0.000000    0.000000
--------------------------------------------------------------------------------

  Final Cartesian lattice vectors (Angstroms) :

        7.276467    0.000000    0.000000
        0.000000    7.276467    0.000000
        0.000000    0.000000    3.849516


  Final cell parameters and derivatives :

--------------------------------------------------------------------------------
       a            7.276467 Angstrom     dE/de1(xx)     0.000300 eV/strain
       b            7.276467 Angstrom     dE/de2(yy)     0.000000 eV/strain
       c            3.849516 Angstrom     dE/de3(zz)    -0.000562 eV/strain
       alpha       90.000000 Degrees      dE/de4(yz)     0.000000 eV/strain
       beta        90.000000 Degrees      dE/de5(xz)     0.000000 eV/strain
       gamma       90.000000 Degrees      dE/de6(xy)     0.000000 eV/strain
--------------------------------------------------------------------------------

  Primitive cell volume =           203.820169 Angs**3

  Density of cell =      2.631385 g/cm**3

  Non-primitive cell volume =           203.820169 Angs**3


  Final internal derivatives :

--------------------------------------------------------------------------------
   No.  Atomic          a             b             c           Radius
        Label          (eV)          (eV)          (eV)        (eV/Angs)
--------------------------------------------------------------------------------
      1 K     c       0.000000      0.000000      0.000000      0.000000
      2 Zn    c       0.000000      0.000000      0.000000      0.000000
      3 F     c       0.000000      0.000000      0.000000      0.000000
      4 F     c       0.000543      0.000000      0.000000      0.000000
      5 F     s       0.000000      0.000000      0.000000      0.000000
      6 F     s      -0.001317      0.000000      0.000000      0.000000
--------------------------------------------------------------------------------
  Maximum abs         0.001317      0.000000      0.000000      0.000000
--------------------------------------------------------------------------------


  Born effective charge tensors : 

-------------------------------------------------------------------------------
  Atom             x           y             z
-------------------------------------------------------------------------------
   1 K     x       0.5214     -0.0006      0.0000
           y       0.0006      0.5214      0.0000
           z       0.0000      0.0000      0.6028
-------------------------------------------------------------------------------
   2 Zn    x       1.5870      0.3161      0.0000
           y       0.3161      1.5870      0.0000
           z       0.0000      0.0000      1.6780
-------------------------------------------------------------------------------
   3 F     x      -0.7002     -0.0100      0.0000
           y      -0.0100     -0.7002      0.0000
           z       0.0000      0.0000     -0.6540
-------------------------------------------------------------------------------
   4 F     x      -0.7041     -0.0204      0.0000
           y      -0.0204     -0.7041      0.0000
           z       0.0000      0.0000     -0.8134
-------------------------------------------------------------------------------




  Elastic Constant Matrix: (Units=GPa)

-------------------------------------------------------------------------------
  Indices      1         2         3         4         5         6    
-------------------------------------------------------------------------------
       1     41.8706    4.0657   -1.9350    0.0000    0.0000    0.0000
       2      4.0657   41.8706   -1.9350    0.0000    0.0000    0.0000
       3     -1.9350   -1.9350  119.3971    0.0000    0.0000    0.0000
       4      0.0000    0.0000    0.0000    0.6619    0.0000    0.0000
       5      0.0000    0.0000    0.0000    0.0000    0.6619    0.0000
       6      0.0000    0.0000    0.0000    0.0000    0.0000    0.7802
-------------------------------------------------------------------------------


  Elastic Compliance Matrix: (Units=1/GPa)

-------------------------------------------------------------------------------
  Indices      1         2         3         4         5         6    
-------------------------------------------------------------------------------
       1    0.024125 -0.002326  0.000353  0.000000  0.000000  0.000000
       2   -0.002326  0.024125  0.000353  0.000000  0.000000  0.000000
       3    0.000353  0.000353  0.008387  0.000000  0.000000  0.000000
       4    0.000000  0.000000  0.000000  1.510695  0.000000  0.000000
       5    0.000000  0.000000  0.000000  0.000000  1.510695  0.000000
       6    0.000000  0.000000  0.000000  0.000000  0.000000  1.281657
-------------------------------------------------------------------------------

  Mechanical properties :

-------------------------------------------------------------------------------
  Convention :                    Reuss         Voigt         Hill
-------------------------------------------------------------------------------
  Bulk  Modulus (GPa)     =      18.72724      22.61438      20.67081
  Shear Modulus (GPa)     =       1.14136      13.95033       7.54585
-------------------------------------------------------------------------------
  Velocity S-wave (km/s)  =       0.65860       2.30250       1.69341
  Velocity P-wave (km/s)  =       2.77402       3.95762       3.41745
-------------------------------------------------------------------------------
  Compressibility (1/GPa) =    0.05339816
-------------------------------------------------------------------------------
  Stress axis :                     x             y             z
-------------------------------------------------------------------------------
  Youngs Moduli (GPa)     =      41.45018      41.45018     119.23407
-------------------------------------------------------------------------------
  Poissons Ratio (x)      =                     0.09643      -0.04212
  Poissons Ratio (y)      =       0.09643                    -0.04212
  Poissons Ratio (z)      =      -0.01464      -0.01464
-------------------------------------------------------------------------------


  Piezoelectric Strain Matrix: (Units=C/m**2)

-------------------------------------------------------------------------------
  Indices      1         2         3         4         5         6    
-------------------------------------------------------------------------------
       x     0.00000   0.00000   0.00000   0.00000   0.00000   0.00000
       y     0.00000   0.00000   0.00000   0.00000   0.00000   0.00000
       z     0.00000   0.00000   0.00000   0.00000   0.00000   0.00000
-------------------------------------------------------------------------------


  Piezoelectric Stress Matrix: (Units=10**-11 C/N)

-------------------------------------------------------------------------------
  Indices      1         2         3         4         5         6    
-------------------------------------------------------------------------------
       x     0.00000   0.00000   0.00000   0.00000   0.00000   0.00000
       y     0.00000   0.00000   0.00000   0.00000   0.00000   0.00000
       z     0.00000   0.00000   0.00000   0.00000   0.00000   0.00000
-------------------------------------------------------------------------------


  Static dielectric constant tensor : 

-------------------------------------------------------------------------------
              x         y         z
-------------------------------------------------------------------------------
       x     7.39134   0.00000   0.00000
       y     0.00000   7.39134   0.00000
       z     0.00000   0.00000   1.70697
--------------------------------------------------------------------------------

  High frequency dielectric constant tensor : 

-------------------------------------------------------------------------------
              x         y         z
-------------------------------------------------------------------------------
       x     1.35361   0.00000   0.00000
       y     0.00000   1.35361   0.00000
       z     0.00000   0.00000   1.38333
-------------------------------------------------------------------------------

  Static refractive indices : 

-------------------------------------------------------------------------------
    1 =    1.30651      2 =    2.71870      3 =    2.71870
-------------------------------------------------------------------------------

  High frequency refractive indices : 

-------------------------------------------------------------------------------
    1 =    1.16345      2 =    1.16345      3 =    1.17615
-------------------------------------------------------------------------------


  Time to end of optimisation =       0.0688 seconds


  Peak dynamic memory used =       0.59 MB 


  Timing analysis for GULP :

--------------------------------------------------------------------------------
  Task / Subroutine                                          Time (Seconds)
--------------------------------------------------------------------------------
  Calculation of reciprocal space energy and derivatives          0.0010
  Calculation of reciprocal space energy using symmetry           0.0061
  Calculation of real space energy and derivatives                0.0039
  Calculation of real space energy using symmetry                 0.0536
  Symmetry generation of equivalent positions                     0.0005
--------------------------------------------------------------------------------
  Total CPU time                                                  0.0688
--------------------------------------------------------------------------------


  CIF file written as perov.cif                                               


  Job Finished at 12:49.32 22nd February   2017                               

