********************************************************************************
*                       GENERAL UTILITY LATTICE PROGRAM                        *
*                                 Julian Gale                                  *
*                      Nanochemistry Research Institute                        *
*                           Department of Chemistry                            *
*                    Curtin University, Western Australia                      *
********************************************************************************
* Version = 4.3.2 * Last modified =  3rd March 2015                            *
********************************************************************************
*  optimise     - perform optimisation run                                     *
*  conp         - constant pressure calculation                                *
*  property     - calculate properties for final geometry                      *
********************************************************************************

  Job Started  at 12:49.34 22nd February   2017                               

  Number of CPUs =     1


  Total number of configurations input =   1

********************************************************************************
*  Input for Configuration =   1                                               *
********************************************************************************

  Formula = K2Zn2F6                                                     

  Number of irreducible atoms/shells =       6


  Total number atoms/shells =      16

  Dimensionality = 3               :  Bulk   


  Symmetry :

  Crystal family                   :  Tetragonal  
  Crystal class  (Groth - 1921)    :  Ditetragonal Dipyramidal             

  Space group (centrosymmetric)    :  P 4/M B M       

  Patterson group                  :  P 4/m m m

  Cartesian lattice vectors (Angstroms) :

        4.200000    0.000000    0.000000
        0.000000    4.200000    0.000000
        0.000000    0.000000    4.200000

  Cell parameters (Angstroms/Degrees):

  a =       4.2000    alpha =  90.0000
  b =       4.2000    beta  =  90.0000
  c =       4.2000    gamma =  90.0000

  Initial cell volume =          74.088000 Angs**3

  Temperature of configuration =  0.000     K 

  Pressure of configuration =         0.000 GPa 

  Fractional coordinates of asymmetric unit :

--------------------------------------------------------------------------------
   No.  Atomic       x           y          z         Charge      Occupancy
        Label      (Frac)      (Frac)     (Frac)        (e)         (Frac)  
--------------------------------------------------------------------------------
      1 K     c    0.000000    0.000000    0.000000     0.90000    1.000000    
      2 Zn    c    0.000000    0.500000    0.000000     2.10000    1.000000    
      3 F     c    0.000000    0.500000    0.500000     0.37800    1.000000    
      4 F     c    0.227100 *  0.727100    0.000000     0.37800    1.000000    
      5 F     s    0.000000    0.500000    0.500000    -1.37800    1.000000    
      6 F     s    0.227100 *  0.727100    0.000000    -1.37800    1.000000    
--------------------------------------------------------------------------------


  Constraints : 

--------------------------------------------------------------------------------
  Constraint no.      Unconstrained     Constrained    Coefficient    Offset
                         Variable         Variable
--------------------------------------------------------------------------------
           1              Strain 1        Strain 2       1.00000      0.0000
           2                 4 x             4 y         1.00000      0.5000
           3                 6 x             6 y         1.00000      0.5000
--------------------------------------------------------------------------------


********************************************************************************
*  General input information                                                   *
********************************************************************************

  Species output for all configurations : 

--------------------------------------------------------------------------------
  Species    Type    Atomic    Atomic    Charge       Radii (Angs)     Library
                     Number     Mass       (e)     Cova   Ionic  VDW   Symbol
--------------------------------------------------------------------------------
    K        Core       19      39.10   0.900000   1.330  0.000  2.800          
    Zn       Core       30      65.39   2.100000   1.450  0.000  2.160          
    F        Core        9      19.00   0.378000   0.710  0.000  1.300          
    F        Shell       9       0.00  -1.378000   0.710  0.000  1.300          
--------------------------------------------------------------------------------


  Lattice summation method               =    Ewald          (3-D)
                                         =    Parry          (2-D)
                                         =    Saunders et al (1-D)
  Accuracy factor for lattice sums       =   12.000


  Time limit = Infinity

  Maximum range for interatomic potentials =    100000.000000 Angstroms

  General interatomic potentials :

--------------------------------------------------------------------------------
Atom  Types   Potential         A         B         C         D     Cutoffs(Ang)
  1     2                                                            Min    Max 
--------------------------------------------------------------------------------
K    c K    c Buckingham    0.219E+04 0.192      0.00      0.00     0.000 10.000
Zn   c F    s Buckingham    0.148E+04 0.266      0.00      0.00     0.000 10.000
F    s F    s Buckingham     912.     0.271      13.8      0.00     0.000 10.000
K    c F    s Buckingham    0.352E+04 0.267      0.00      0.00     0.000 10.000
F    c F    s Spring (c-s)   24.3      0.00      0.00      0.00     0.000  0.800
--------------------------------------------------------------------------------

********************************************************************************
*  Output for configuration   1                                                *
********************************************************************************


  Components of energy : 

--------------------------------------------------------------------------------
  Interatomic potentials     =         162.45946484 eV
  Monopole - monopole (real) =         -47.06287243 eV
  Monopole - monopole (recip)=         -68.50991242 eV
  Monopole - monopole (total)=        -115.57278485 eV
--------------------------------------------------------------------------------
  Total lattice energy       =          46.88668000 eV
--------------------------------------------------------------------------------
  Total lattice energy       =            4523.8479 kJ/(mole unit cells)
--------------------------------------------------------------------------------


  Number of variables =        4

  Maximum number of calculations  =          1000
  Maximum Hessian update interval =            10
  Maximum step size               =   1.000000000
  Maximum parameter tolerance     =   0.000010000
  Maximum function  tolerance     =   0.000010000
  Maximum gradient  tolerance     =   0.001000000
  Maximum gradient  component     =   0.010000000

  Symmetry constrained optimisation

  Symmetry used for second derivatives

  Cell parameters to be optimised using strains

  Newton-Raphson optimiser to be used

  BFGS hessian update to be used

  Start of bulk optimisation :

  Cycle:      0 Energy:        46.886680  Gnorm:    205.934762  CPU:    0.005
  ** Hessian calculated **
  Cycle:      1 Energy:       -74.345390  Gnorm:     31.655526  CPU:    0.012
  ** Hessian calculated **
  Cycle:      2 Energy:       -75.785025  Gnorm:     15.934525  CPU:    0.018
  ** Hessian calculated **
  Cycle:      3 Energy:       -76.097539  Gnorm:      8.164342  CPU:    0.023
  Cycle:      4 Energy:       -76.235823  Gnorm:      6.821674  CPU:    0.026
  Cycle:      5 Energy:       -76.282896  Gnorm:      0.837492  CPU:    0.030
  Cycle:      6 Energy:       -76.283802  Gnorm:      0.172566  CPU:    0.033
  Cycle:      7 Energy:       -76.283855  Gnorm:      0.035917  CPU:    0.036
  Cycle:      8 Energy:       -76.283855  Gnorm:      0.001838  CPU:    0.039


  **** Optimisation achieved ****


  Final energy =     -76.28385542 eV
  Final Gnorm  =       0.00068693

  Components of energy : 

--------------------------------------------------------------------------------
  Interatomic potentials     =          11.33141390 eV
  Monopole - monopole (real) =         -22.25660676 eV
  Monopole - monopole (recip)=         -65.35866256 eV
  Monopole - monopole (total)=         -87.61526932 eV
--------------------------------------------------------------------------------
  Total lattice energy       =         -76.28385542 eV
--------------------------------------------------------------------------------
  Total lattice energy       =           -7360.2259 kJ/(mole unit cells)
--------------------------------------------------------------------------------

  Final asymmetric unit coordinates :

--------------------------------------------------------------------------------
   No.  Atomic        x           y           z         Radius
        Label       (Frac)      (Frac)      (Frac)       (Angs) 
--------------------------------------------------------------------------------
     1  K     c     0.000000    0.000000    0.000000    0.000000
     2  Zn    c     0.000000    0.500000    0.000000    0.000000
     3  F     c     0.000000    0.500000    0.500000    0.000000
     4  F     c     0.299884    0.799884    0.000000    0.000000
     5  F     s     0.000000    0.500000    0.500000    0.000000
     6  F     s     0.305057    0.805057    0.000000    0.000000
--------------------------------------------------------------------------------

  Final Cartesian lattice vectors (Angstroms) :

        6.952795    0.000000    0.000000
        0.000000    6.952795    0.000000
        0.000000    0.000000    3.829095


  Final cell parameters and derivatives :

--------------------------------------------------------------------------------
       a            6.952795 Angstrom     dE/de1(xx)    -0.000176 eV/strain
       b            6.952795 Angstrom     dE/de2(yy)     0.000000 eV/strain
       c            3.829095 Angstrom     dE/de3(zz)     0.000003 eV/strain
       alpha       90.000000 Degrees      dE/de4(yz)     0.000000 eV/strain
       beta        90.000000 Degrees      dE/de5(xz)     0.000000 eV/strain
       gamma       90.000000 Degrees      dE/de6(xy)     0.000000 eV/strain
--------------------------------------------------------------------------------

  Primitive cell volume =           185.103670 Angs**3

  Density of cell =      2.897454 g/cm**3

  Non-primitive cell volume =           185.103670 Angs**3


  Final internal derivatives :

--------------------------------------------------------------------------------
   No.  Atomic          a             b             c           Radius
        Label          (eV)          (eV)          (eV)        (eV/Angs)
--------------------------------------------------------------------------------
      1 K     c       0.000000      0.000000      0.000000      0.000000
      2 Zn    c       0.000000      0.000000      0.000000      0.000000
      3 F     c       0.000000      0.000000      0.000000      0.000000
      4 F     c      -0.001587      0.000000      0.000000      0.000000
      5 F     s       0.000000      0.000000      0.000000      0.000000
      6 F     s       0.002236      0.000000      0.000000      0.000000
--------------------------------------------------------------------------------
  Maximum abs         0.002236      0.000000      0.000000      0.000000
--------------------------------------------------------------------------------


  Born effective charge tensors : 

-------------------------------------------------------------------------------
  Atom             x           y             z
-------------------------------------------------------------------------------
   1 K     x       0.7740      0.0000      0.0000
           y       0.0000      0.7740      0.0000
           z       0.0000      0.0000      0.8957
-------------------------------------------------------------------------------
   2 Zn    x       1.6679      0.2607      0.0000
           y       0.2607      1.6679      0.0000
           z       0.0000      0.0000      1.5441
-------------------------------------------------------------------------------
   3 F     x      -0.8112     -0.0108      0.0000
           y      -0.0108     -0.8112      0.0000
           z       0.0000      0.0000     -0.7105
-------------------------------------------------------------------------------
   4 F     x      -0.8153     -0.1028      0.0000
           y      -0.1028     -0.8153      0.0000
           z       0.0000      0.0000     -0.8646
-------------------------------------------------------------------------------




  Elastic Constant Matrix: (Units=GPa)

-------------------------------------------------------------------------------
  Indices      1         2         3         4         5         6    
-------------------------------------------------------------------------------
       1     70.3768   11.5782   -2.8947    0.0000    0.0000    0.0000
       2     11.5782   70.3768   -2.8947    0.0000    0.0000    0.0000
       3     -2.8947   -2.8947  133.6085    0.0000    0.0000    0.0000
       4      0.0000    0.0000    0.0000    1.6458    0.0000    0.0000
       5      0.0000    0.0000    0.0000    0.0000    1.6458    0.0000
       6      0.0000    0.0000    0.0000    0.0000    0.0000    8.9542
-------------------------------------------------------------------------------


  Elastic Compliance Matrix: (Units=1/GPa)

-------------------------------------------------------------------------------
  Indices      1         2         3         4         5         6    
-------------------------------------------------------------------------------
       1    0.014614 -0.002393  0.000265  0.000000  0.000000  0.000000
       2   -0.002393  0.014614  0.000265  0.000000  0.000000  0.000000
       3    0.000265  0.000265  0.007496  0.000000  0.000000  0.000000
       4    0.000000  0.000000  0.000000  0.607611  0.000000  0.000000
       5    0.000000  0.000000  0.000000  0.000000  0.607611  0.000000
       6    0.000000  0.000000  0.000000  0.000000  0.000000  0.111680
-------------------------------------------------------------------------------

  Mechanical properties :

-------------------------------------------------------------------------------
  Convention :                    Reuss         Voigt         Hill
-------------------------------------------------------------------------------
  Bulk  Modulus (GPa)     =      30.30657      31.77106      31.03881
  Shear Modulus (GPa)     =       3.62752      20.35404      11.99078
-------------------------------------------------------------------------------
  Velocity S-wave (km/s)  =       1.11891       2.65043       2.03430
  Velocity P-wave (km/s)  =       3.48267       4.50905       4.02868
-------------------------------------------------------------------------------
  Compressibility (1/GPa) =    0.03299614
-------------------------------------------------------------------------------
  Stress axis :                     x             y             z
-------------------------------------------------------------------------------
  Youngs Moduli (GPa)     =      68.42817      68.42817     133.40398
-------------------------------------------------------------------------------
  Poissons Ratio (x)      =                     0.16377      -0.03532
  Poissons Ratio (y)      =       0.16377                    -0.03532
  Poissons Ratio (z)      =      -0.01812      -0.01812
-------------------------------------------------------------------------------


  Piezoelectric Strain Matrix: (Units=C/m**2)

-------------------------------------------------------------------------------
  Indices      1         2         3         4         5         6    
-------------------------------------------------------------------------------
       x     0.00000   0.00000   0.00000   0.00000   0.00000   0.00000
       y     0.00000   0.00000   0.00000   0.00000   0.00000   0.00000
       z     0.00000   0.00000   0.00000   0.00000   0.00000   0.00000
-------------------------------------------------------------------------------


  Piezoelectric Stress Matrix: (Units=10**-11 C/N)

-------------------------------------------------------------------------------
  Indices      1         2         3         4         5         6    
-------------------------------------------------------------------------------
       x     0.00000   0.00000   0.00000   0.00000   0.00000   0.00000
       y     0.00000   0.00000   0.00000   0.00000   0.00000   0.00000
       z     0.00000   0.00000   0.00000   0.00000   0.00000   0.00000
-------------------------------------------------------------------------------


  Static dielectric constant tensor : 

-------------------------------------------------------------------------------
              x         y         z
-------------------------------------------------------------------------------
       x     5.04869   0.00000   0.00000
       y     0.00000   5.04869   0.00000
       z     0.00000   0.00000   1.20098
--------------------------------------------------------------------------------

  High frequency dielectric constant tensor : 

-------------------------------------------------------------------------------
              x         y         z
-------------------------------------------------------------------------------
       x     1.41121   0.00000   0.00000
       y     0.00000   1.41121   0.00000
       z     0.00000   0.00000   1.41867
-------------------------------------------------------------------------------

  Static refractive indices : 

-------------------------------------------------------------------------------
    1 =    1.09589      2 =    2.24693      3 =    2.24693
-------------------------------------------------------------------------------

  High frequency refractive indices : 

-------------------------------------------------------------------------------
    1 =    1.18794      2 =    1.18794      3 =    1.19108
-------------------------------------------------------------------------------


  Time to end of optimisation =       0.0473 seconds


  Peak dynamic memory used =       0.59 MB 


  Timing analysis for GULP :

--------------------------------------------------------------------------------
  Task / Subroutine                                          Time (Seconds)
--------------------------------------------------------------------------------
  Calculation of reciprocal space energy and derivatives          0.0009
  Calculation of reciprocal space energy using symmetry           0.0040
  Calculation of real space energy and derivatives                0.0037
  Calculation of real space energy using symmetry                 0.0349
  Symmetry generation of equivalent positions                     0.0004
--------------------------------------------------------------------------------
  Total CPU time                                                  0.0473
--------------------------------------------------------------------------------


  CIF file written as perov.cif                                               


  Job Finished at 12:49.34 22nd February   2017                               

