********************************************************************************
*                       GENERAL UTILITY LATTICE PROGRAM                        *
*                                 Julian Gale                                  *
*                      Nanochemistry Research Institute                        *
*                           Department of Chemistry                            *
*                    Curtin University, Western Australia                      *
********************************************************************************
* Version = 4.3.2 * Last modified =  3rd March 2015                            *
********************************************************************************
*  optimise     - perform optimisation run                                     *
*  conp         - constant pressure calculation                                *
*  property     - calculate properties for final geometry                      *
********************************************************************************

  Job Started  at 12:49.32 22nd February   2017                               

  Number of CPUs =     1


  Total number of configurations input =   1

********************************************************************************
*  Input for Configuration =   1                                               *
********************************************************************************

  Formula = K2Zn2F6                                                     

  Number of irreducible atoms/shells =       6


  Total number atoms/shells =      16

  Dimensionality = 3               :  Bulk   


  Symmetry :

  Crystal family                   :  Tetragonal  
  Crystal class  (Groth - 1921)    :  Ditetragonal Dipyramidal             

  Space group (centrosymmetric)    :  P 4/M B M       

  Patterson group                  :  P 4/m m m

  Cartesian lattice vectors (Angstroms) :

        4.200000    0.000000    0.000000
        0.000000    4.200000    0.000000
        0.000000    0.000000    4.200000

  Cell parameters (Angstroms/Degrees):

  a =       4.2000    alpha =  90.0000
  b =       4.2000    beta  =  90.0000
  c =       4.2000    gamma =  90.0000

  Initial cell volume =          74.088000 Angs**3

  Temperature of configuration =  0.000     K 

  Pressure of configuration =         0.000 GPa 

  Fractional coordinates of asymmetric unit :

--------------------------------------------------------------------------------
   No.  Atomic       x           y          z         Charge      Occupancy
        Label      (Frac)      (Frac)     (Frac)        (e)         (Frac)  
--------------------------------------------------------------------------------
      1 K     c    0.000000    0.000000    0.000000     0.60000    1.000000    
      2 Zn    c    0.000000    0.500000    0.000000     2.40000    1.000000    
      3 F     c    0.000000    0.500000    0.500000     0.37800    1.000000    
      4 F     c    0.227100 *  0.727100    0.000000     0.37800    1.000000    
      5 F     s    0.000000    0.500000    0.500000    -1.37800    1.000000    
      6 F     s    0.227100 *  0.727100    0.000000    -1.37800    1.000000    
--------------------------------------------------------------------------------


  Constraints : 

--------------------------------------------------------------------------------
  Constraint no.      Unconstrained     Constrained    Coefficient    Offset
                         Variable         Variable
--------------------------------------------------------------------------------
           1              Strain 1        Strain 2       1.00000      0.0000
           2                 4 x             4 y         1.00000      0.5000
           3                 6 x             6 y         1.00000      0.5000
--------------------------------------------------------------------------------


********************************************************************************
*  General input information                                                   *
********************************************************************************

  Species output for all configurations : 

--------------------------------------------------------------------------------
  Species    Type    Atomic    Atomic    Charge       Radii (Angs)     Library
                     Number     Mass       (e)     Cova   Ionic  VDW   Symbol
--------------------------------------------------------------------------------
    K        Core       19      39.10   0.600000   1.330  0.000  2.800          
    Zn       Core       30      65.39   2.400000   1.450  0.000  2.160          
    F        Core        9      19.00   0.378000   0.710  0.000  1.300          
    F        Shell       9       0.00  -1.378000   0.710  0.000  1.300          
--------------------------------------------------------------------------------


  Lattice summation method               =    Ewald          (3-D)
                                         =    Parry          (2-D)
                                         =    Saunders et al (1-D)
  Accuracy factor for lattice sums       =   12.000


  Time limit = Infinity

  Maximum range for interatomic potentials =    100000.000000 Angstroms

  General interatomic potentials :

--------------------------------------------------------------------------------
Atom  Types   Potential         A         B         C         D     Cutoffs(Ang)
  1     2                                                            Min    Max 
--------------------------------------------------------------------------------
K    c K    c Buckingham    0.219E+04 0.192      0.00      0.00     0.000 10.000
Zn   c F    s Buckingham    0.148E+04 0.266      0.00      0.00     0.000 10.000
F    s F    s Buckingham     912.     0.271      13.8      0.00     0.000 10.000
K    c F    s Buckingham    0.352E+04 0.267      0.00      0.00     0.000 10.000
F    c F    s Spring (c-s)   24.3      0.00      0.00      0.00     0.000  0.800
--------------------------------------------------------------------------------

********************************************************************************
*  Output for configuration   1                                                *
********************************************************************************


  Components of energy : 

--------------------------------------------------------------------------------
  Interatomic potentials     =         162.45946484 eV
  Monopole - monopole (real) =         -50.16177050 eV
  Monopole - monopole (recip)=         -76.19404779 eV
  Monopole - monopole (total)=        -126.35581829 eV
--------------------------------------------------------------------------------
  Total lattice energy       =          36.10364655 eV
--------------------------------------------------------------------------------
  Total lattice energy       =            3483.4500 kJ/(mole unit cells)
--------------------------------------------------------------------------------


  Number of variables =        4

  Maximum number of calculations  =          1000
  Maximum Hessian update interval =            10
  Maximum step size               =   1.000000000
  Maximum parameter tolerance     =   0.000010000
  Maximum function  tolerance     =   0.000010000
  Maximum gradient  tolerance     =   0.001000000
  Maximum gradient  component     =   0.010000000

  Symmetry constrained optimisation

  Symmetry used for second derivatives

  Cell parameters to be optimised using strains

  Newton-Raphson optimiser to be used

  BFGS hessian update to be used

  Start of bulk optimisation :

  Cycle:      0 Energy:        36.103647  Gnorm:    202.478709  CPU:    0.005
  ** Hessian calculated **
  Cycle:      1 Energy:       -81.767671  Gnorm:     35.286717  CPU:    0.012
  ** Hessian calculated **
  Cycle:      2 Energy:       -84.826691  Gnorm:     26.023141  CPU:    0.018
  Cycle:      3 Energy:       -85.414569  Gnorm:      7.120957  CPU:    0.021
  ** Hessian calculated **
  Cycle:      4 Energy:       -85.854157  Gnorm:      3.085258  CPU:    0.026
  Cycle:      5 Energy:       -85.975374  Gnorm:      5.430613  CPU:    0.030
  Cycle:      6 Energy:       -86.031432  Gnorm:      3.345950  CPU:    0.034
  Cycle:      7 Energy:       -86.078202  Gnorm:      1.399546  CPU:    0.038
  Cycle:      8 Energy:       -86.082937  Gnorm:      0.632767  CPU:    0.041
  Cycle:      9 Energy:       -86.084476  Gnorm:      0.541863  CPU:    0.045
  Cycle:     10 Energy:       -86.085136  Gnorm:      0.185266  CPU:    0.048
  Cycle:     11 Energy:       -86.085282  Gnorm:      0.076897  CPU:    0.052
  Cycle:     12 Energy:       -86.085299  Gnorm:      0.076723  CPU:    0.055
  Cycle:     13 Energy:       -86.085310  Gnorm:      0.041037  CPU:    0.058
  ** Hessian calculated **
  Cycle:     14 Energy:       -86.085316  Gnorm:      0.008168  CPU:    0.063
  Cycle:     15 Energy:       -86.085316  Gnorm:      0.008000  CPU:    0.066
  Cycle:     16 Energy:       -86.085316  Gnorm:      0.005882  CPU:    0.069
  Cycle:     17 Energy:       -86.085316  Gnorm:      0.002332  CPU:    0.072
  Cycle:     18 Energy:       -86.085316  Gnorm:      0.001350  CPU:    0.076
  Cycle:     19 Energy:       -86.085316  Gnorm:      0.001083  CPU:    0.079


  **** Optimisation achieved ****


  Final energy =     -86.08531626 eV
  Final Gnorm  =       0.00047432

  Components of energy : 

--------------------------------------------------------------------------------
  Interatomic potentials     =          14.09425601 eV
  Monopole - monopole (real) =         -30.24214422 eV
  Monopole - monopole (recip)=         -69.93742805 eV
  Monopole - monopole (total)=        -100.17957227 eV
--------------------------------------------------------------------------------
  Total lattice energy       =         -86.08531626 eV
--------------------------------------------------------------------------------
  Total lattice energy       =           -8305.9171 kJ/(mole unit cells)
--------------------------------------------------------------------------------

  Final asymmetric unit coordinates :

--------------------------------------------------------------------------------
   No.  Atomic        x           y           z         Radius
        Label       (Frac)      (Frac)      (Frac)       (Angs) 
--------------------------------------------------------------------------------
     1  K     c     0.000000    0.000000    0.000000    0.000000
     2  Zn    c     0.000000    0.500000    0.000000    0.000000
     3  F     c     0.000000    0.500000    0.500000    0.000000
     4  F     c     0.315888    0.815888    0.000000    0.000000
     5  F     s     0.000000    0.500000    0.500000    0.000000
     6  F     s     0.323972    0.823972    0.000000    0.000000
--------------------------------------------------------------------------------

  Final Cartesian lattice vectors (Angstroms) :

        7.201422    0.000000    0.000000
        0.000000    7.201422    0.000000
        0.000000    0.000000    3.742866


  Final cell parameters and derivatives :

--------------------------------------------------------------------------------
       a            7.201422 Angstrom     dE/de1(xx)    -0.000023 eV/strain
       b            7.201422 Angstrom     dE/de2(yy)     0.000000 eV/strain
       c            3.742866 Angstrom     dE/de3(zz)    -0.000183 eV/strain
       alpha       90.000000 Degrees      dE/de4(yz)     0.000000 eV/strain
       beta        90.000000 Degrees      dE/de5(xz)     0.000000 eV/strain
       gamma       90.000000 Degrees      dE/de6(xy)     0.000000 eV/strain
--------------------------------------------------------------------------------

  Primitive cell volume =           194.106849 Angs**3

  Density of cell =      2.763063 g/cm**3

  Non-primitive cell volume =           194.106849 Angs**3


  Final internal derivatives :

--------------------------------------------------------------------------------
   No.  Atomic          a             b             c           Radius
        Label          (eV)          (eV)          (eV)        (eV/Angs)
--------------------------------------------------------------------------------
      1 K     c       0.000000      0.000000      0.000000      0.000000
      2 Zn    c       0.000000      0.000000      0.000000      0.000000
      3 F     c       0.000000      0.000000      0.000000      0.000000
      4 F     c       0.001884      0.000000      0.000000      0.000000
      5 F     s       0.000000      0.000000      0.000000      0.000000
      6 F     s       0.000123      0.000000      0.000000      0.000000
--------------------------------------------------------------------------------
  Maximum abs         0.001884      0.000000      0.000000      0.000000
--------------------------------------------------------------------------------


  Born effective charge tensors : 

-------------------------------------------------------------------------------
  Atom             x           y             z
-------------------------------------------------------------------------------
   1 K     x       0.5266     -0.0012      0.0000
           y       0.0012      0.5266      0.0000
           z       0.0000      0.0000      0.6044
-------------------------------------------------------------------------------
   2 Zn    x       1.6492      0.3650      0.0000
           y       0.3650      1.6492      0.0000
           z       0.0000      0.0000      1.8327
-------------------------------------------------------------------------------
   3 F     x      -0.7215     -0.0110      0.0000
           y      -0.0110     -0.7215      0.0000
           z       0.0000      0.0000     -0.7028
-------------------------------------------------------------------------------
   4 F     x      -0.7272      0.0005      0.0000
           y       0.0005     -0.7272      0.0000
           z       0.0000      0.0000     -0.8671
-------------------------------------------------------------------------------




  Elastic Constant Matrix: (Units=GPa)

-------------------------------------------------------------------------------
  Indices      1         2         3         4         5         6    
-------------------------------------------------------------------------------
       1     47.3027    3.3138   -2.3285    0.0000    0.0000    0.0000
       2      3.3138   47.3027   -2.3285    0.0000    0.0000    0.0000
       3     -2.3285   -2.3285  143.0196    0.0000    0.0000    0.0000
       4      0.0000    0.0000    0.0000    0.4450    0.0000    0.0000
       5      0.0000    0.0000    0.0000    0.0000    0.4450    0.0000
       6      0.0000    0.0000    0.0000    0.0000    0.0000   -0.0601
-------------------------------------------------------------------------------


  Elastic Compliance Matrix: (Units=1/GPa)

-------------------------------------------------------------------------------
  Indices      1         2         3         4         5         6    
-------------------------------------------------------------------------------
       1    0.021260 -0.001474  0.000322  0.000000  0.000000  0.000000
       2   -0.001474  0.021260  0.000322  0.000000  0.000000  0.000000
       3    0.000322  0.000322  0.007003  0.000000  0.000000  0.000000
       4    0.000000  0.000000  0.000000  2.247347  0.000000  0.000000
       5    0.000000  0.000000  0.000000  0.000000  2.247347  0.000000
       6    0.000000  0.000000  0.000000  0.000000  0.000000-16.631722
-------------------------------------------------------------------------------

  Mechanical properties :

-------------------------------------------------------------------------------
  Convention :                    Reuss         Voigt         Hill
-------------------------------------------------------------------------------
  Bulk  Modulus (GPa)     =      20.89289      26.10427      23.49858
  Shear Modulus (GPa)     =      -0.41425      16.09717       7.84146
-------------------------------------------------------------------------------
  Velocity S-wave (km/s)  =      -0.38720       2.41368       1.68462
  Velocity P-wave (km/s)  =       2.71323       4.14914       3.50549
-------------------------------------------------------------------------------
  Compressibility (1/GPa) =    0.04786317
-------------------------------------------------------------------------------
  Stress axis :                     x             y             z
-------------------------------------------------------------------------------
  Youngs Moduli (GPa)     =      47.03772      47.03772     142.80532
-------------------------------------------------------------------------------
  Poissons Ratio (x)      =                     0.06931      -0.04600
  Poissons Ratio (y)      =       0.06931                    -0.04600
  Poissons Ratio (z)      =      -0.01515      -0.01515
-------------------------------------------------------------------------------


  Piezoelectric Strain Matrix: (Units=C/m**2)

-------------------------------------------------------------------------------
  Indices      1         2         3         4         5         6    
-------------------------------------------------------------------------------
       x     0.00000   0.00000   0.00000   0.00000   0.00000   0.00000
       y     0.00000   0.00000   0.00000   0.00000   0.00000   0.00000
       z     0.00000   0.00000   0.00000   0.00000   0.00000   0.00000
-------------------------------------------------------------------------------


  Piezoelectric Stress Matrix: (Units=10**-11 C/N)

-------------------------------------------------------------------------------
  Indices      1         2         3         4         5         6    
-------------------------------------------------------------------------------
       x     0.00000   0.00000   0.00000   0.00000   0.00000   0.00000
       y     0.00000   0.00000   0.00000   0.00000   0.00000   0.00000
       z     0.00000   0.00000   0.00000   0.00000   0.00000   0.00000
-------------------------------------------------------------------------------


  Static dielectric constant tensor : 

-------------------------------------------------------------------------------
              x         y         z
-------------------------------------------------------------------------------
       x   -13.75467   0.00000   0.00000
       y     0.00000 -13.75467   0.00000
       z     0.00000   0.00000   1.75705
--------------------------------------------------------------------------------

  High frequency dielectric constant tensor : 

-------------------------------------------------------------------------------
              x         y         z
-------------------------------------------------------------------------------
       x     1.36004   0.00000   0.00000
       y     0.00000   1.36004   0.00000
       z     0.00000   0.00000   1.40175
-------------------------------------------------------------------------------

  Static refractive indices : 

-------------------------------------------------------------------------------
    1 =   -3.70873      2 =   -3.70873      3 =    1.32554
-------------------------------------------------------------------------------

  High frequency refractive indices : 

-------------------------------------------------------------------------------
    1 =    1.16621      2 =    1.16621      3 =    1.18396
-------------------------------------------------------------------------------


  Time to end of optimisation =       0.0876 seconds


  Peak dynamic memory used =       0.59 MB 


  Timing analysis for GULP :

--------------------------------------------------------------------------------
  Task / Subroutine                                          Time (Seconds)
--------------------------------------------------------------------------------
  Calculation of reciprocal space energy and derivatives          0.0011
  Calculation of reciprocal space energy using symmetry           0.0078
  Calculation of real space energy and derivatives                0.0039
  Calculation of real space energy using symmetry                 0.0702
  Symmetry generation of equivalent positions                     0.0005
--------------------------------------------------------------------------------
  Total CPU time                                                  0.0877
--------------------------------------------------------------------------------


  CIF file written as perov.cif                                               


  Job Finished at 12:49.32 22nd February   2017                               

