********************************************************************************
*                       GENERAL UTILITY LATTICE PROGRAM                        *
*                                 Julian Gale                                  *
*                      Nanochemistry Research Institute                        *
*                           Department of Chemistry                            *
*                    Curtin University, Western Australia                      *
********************************************************************************
* Version = 4.3.2 * Last modified =  3rd March 2015                            *
********************************************************************************
*  optimise     - perform optimisation run                                     *
*  conp         - constant pressure calculation                                *
*  property     - calculate properties for final geometry                      *
********************************************************************************

  Job Started  at 12:49.36 22nd February   2017                               

  Number of CPUs =     1


  Total number of configurations input =   1

********************************************************************************
*  Input for Configuration =   1                                               *
********************************************************************************

  Formula = K2Zn2F6                                                     

  Number of irreducible atoms/shells =       6


  Total number atoms/shells =      16

  Dimensionality = 3               :  Bulk   


  Symmetry :

  Crystal family                   :  Tetragonal  
  Crystal class  (Groth - 1921)    :  Ditetragonal Dipyramidal             

  Space group (centrosymmetric)    :  P 4/M B M       

  Patterson group                  :  P 4/m m m

  Cartesian lattice vectors (Angstroms) :

        4.200000    0.000000    0.000000
        0.000000    4.200000    0.000000
        0.000000    0.000000    4.200000

  Cell parameters (Angstroms/Degrees):

  a =       4.2000    alpha =  90.0000
  b =       4.2000    beta  =  90.0000
  c =       4.2000    gamma =  90.0000

  Initial cell volume =          74.088000 Angs**3

  Temperature of configuration =  0.000     K 

  Pressure of configuration =         0.000 GPa 

  Fractional coordinates of asymmetric unit :

--------------------------------------------------------------------------------
   No.  Atomic       x           y          z         Charge      Occupancy
        Label      (Frac)      (Frac)     (Frac)        (e)         (Frac)  
--------------------------------------------------------------------------------
      1 K     c    0.000000    0.000000    0.000000     1.20000    1.000000    
      2 Zn    c    0.000000    0.500000    0.000000     1.70000    1.000000    
      3 F     c    0.000000    0.500000    0.500000     0.37800    1.000000    
      4 F     c    0.227100 *  0.727100    0.000000     0.37800    1.000000    
      5 F     s    0.000000    0.500000    0.500000    -1.34467    1.000000    
      6 F     s    0.227100 *  0.727100    0.000000    -1.34467    1.000000    
--------------------------------------------------------------------------------


  Constraints : 

--------------------------------------------------------------------------------
  Constraint no.      Unconstrained     Constrained    Coefficient    Offset
                         Variable         Variable
--------------------------------------------------------------------------------
           1              Strain 1        Strain 2       1.00000      0.0000
           2                 4 x             4 y         1.00000      0.5000
           3                 6 x             6 y         1.00000      0.5000
--------------------------------------------------------------------------------


********************************************************************************
*  General input information                                                   *
********************************************************************************

  Species output for all configurations : 

--------------------------------------------------------------------------------
  Species    Type    Atomic    Atomic    Charge       Radii (Angs)     Library
                     Number     Mass       (e)     Cova   Ionic  VDW   Symbol
--------------------------------------------------------------------------------
    K        Core       19      39.10   1.200000   1.330  0.000  2.800          
    Zn       Core       30      65.39   1.700000   1.450  0.000  2.160          
    F        Core        9      19.00   0.378000   0.710  0.000  1.300          
    F        Shell       9       0.00  -1.344667   0.710  0.000  1.300          
--------------------------------------------------------------------------------


  Lattice summation method               =    Ewald          (3-D)
                                         =    Parry          (2-D)
                                         =    Saunders et al (1-D)
  Accuracy factor for lattice sums       =   12.000


  Time limit = Infinity

  Maximum range for interatomic potentials =    100000.000000 Angstroms

  General interatomic potentials :

--------------------------------------------------------------------------------
Atom  Types   Potential         A         B         C         D     Cutoffs(Ang)
  1     2                                                            Min    Max 
--------------------------------------------------------------------------------
K    c K    c Buckingham    0.219E+04 0.192      0.00      0.00     0.000 10.000
Zn   c F    s Buckingham    0.148E+04 0.266      0.00      0.00     0.000 10.000
F    s F    s Buckingham     912.     0.271      13.8      0.00     0.000 10.000
K    c F    s Buckingham    0.352E+04 0.267      0.00      0.00     0.000 10.000
F    c F    s Spring (c-s)   23.2      0.00      0.00      0.00     0.000  0.800
--------------------------------------------------------------------------------

********************************************************************************
*  Output for configuration   1                                                *
********************************************************************************


  Components of energy : 

--------------------------------------------------------------------------------
  Interatomic potentials     =         162.45946484 eV
  Monopole - monopole (real) =         -41.75674147 eV
  Monopole - monopole (recip)=         -59.30229818 eV
  Monopole - monopole (total)=        -101.05903965 eV
--------------------------------------------------------------------------------
  Total lattice energy       =          61.40042519 eV
--------------------------------------------------------------------------------
  Total lattice energy       =            5924.2024 kJ/(mole unit cells)
--------------------------------------------------------------------------------


  Number of variables =        4

  Maximum number of calculations  =          1000
  Maximum Hessian update interval =            10
  Maximum step size               =   1.000000000
  Maximum parameter tolerance     =   0.000010000
  Maximum function  tolerance     =   0.000010000
  Maximum gradient  tolerance     =   0.001000000
  Maximum gradient  component     =   0.010000000

  Symmetry constrained optimisation

  Symmetry used for second derivatives

  Cell parameters to be optimised using strains

  Newton-Raphson optimiser to be used

  BFGS hessian update to be used

  Start of bulk optimisation :

  Cycle:      0 Energy:        61.400425  Gnorm:    210.753065  CPU:    0.005
  ** Hessian calculated **
  Cycle:      1 Energy:       -63.195259  Gnorm:     24.207411  CPU:    0.013
  ** Hessian calculated **
  Cycle:      2 Energy:       -63.857264  Gnorm:      6.103568  CPU:    0.018
  Cycle:      3 Energy:       -63.928633  Gnorm:      0.206333  CPU:    0.021
  Cycle:      4 Energy:       -63.936944  Gnorm:      0.514779  CPU:    0.025
  Cycle:      5 Energy:       -63.937242  Gnorm:      0.413948  CPU:    0.029
  Cycle:      6 Energy:       -63.937571  Gnorm:      0.029974  CPU:    0.032
  Cycle:      7 Energy:       -63.937576  Gnorm:      0.007254  CPU:    0.035


  **** Optimisation achieved ****


  Final energy =     -63.93757591 eV
  Final Gnorm  =       0.00060934

  Components of energy : 

--------------------------------------------------------------------------------
  Interatomic potentials     =           8.50991821 eV
  Monopole - monopole (real) =         -14.22832344 eV
  Monopole - monopole (recip)=         -58.21917068 eV
  Monopole - monopole (total)=         -72.44749412 eV
--------------------------------------------------------------------------------
  Total lattice energy       =         -63.93757591 eV
--------------------------------------------------------------------------------
  Total lattice energy       =           -6168.9987 kJ/(mole unit cells)
--------------------------------------------------------------------------------

  Final asymmetric unit coordinates :

--------------------------------------------------------------------------------
   No.  Atomic        x           y           z         Radius
        Label       (Frac)      (Frac)      (Frac)       (Angs) 
--------------------------------------------------------------------------------
     1  K     c     0.000000    0.000000    0.000000    0.000000
     2  Zn    c     0.000000    0.500000    0.000000    0.000000
     3  F     c     0.000000    0.500000    0.500000    0.000000
     4  F     c     0.230741    0.730741    0.000000    0.000000
     5  F     s     0.000000    0.500000    0.500000    0.000000
     6  F     s     0.229277    0.729277    0.000000    0.000000
--------------------------------------------------------------------------------

  Final Cartesian lattice vectors (Angstroms) :

        6.776802    0.000000    0.000000
        0.000000    6.776802    0.000000
        0.000000    0.000000    3.993439


  Final cell parameters and derivatives :

--------------------------------------------------------------------------------
       a            6.776802 Angstrom     dE/de1(xx)     0.000907 eV/strain
       b            6.776802 Angstrom     dE/de2(yy)     0.000000 eV/strain
       c            3.993439 Angstrom     dE/de3(zz)    -0.000058 eV/strain
       alpha       90.000000 Degrees      dE/de4(yz)     0.000000 eV/strain
       beta        90.000000 Degrees      dE/de5(xz)     0.000000 eV/strain
       gamma       90.000000 Degrees      dE/de6(xy)     0.000000 eV/strain
--------------------------------------------------------------------------------

  Primitive cell volume =           183.398891 Angs**3

  Density of cell =      2.924388 g/cm**3

  Non-primitive cell volume =           183.398891 Angs**3


  Final internal derivatives :

--------------------------------------------------------------------------------
   No.  Atomic          a             b             c           Radius
        Label          (eV)          (eV)          (eV)        (eV/Angs)
--------------------------------------------------------------------------------
      1 K     c       0.000000      0.000000      0.000000      0.000000
      2 Zn    c       0.000000      0.000000      0.000000      0.000000
      3 F     c       0.000000      0.000000      0.000000      0.000000
      4 F     c       0.002259      0.000000      0.000000      0.000000
      5 F     s       0.000000      0.000000      0.000000      0.000000
      6 F     s      -0.000108      0.000000      0.000000      0.000000
--------------------------------------------------------------------------------
  Maximum abs         0.002259      0.000000      0.000000      0.000000
--------------------------------------------------------------------------------


  Born effective charge tensors : 

-------------------------------------------------------------------------------
  Atom             x           y             z
-------------------------------------------------------------------------------
   1 K     x       0.9818     -0.0029      0.0000
           y       0.0029      0.9818      0.0000
           z       0.0000      0.0000      1.1821
-------------------------------------------------------------------------------
   2 Zn    x       1.6648     -0.0863      0.0000
           y      -0.0863      1.6648      0.0000
           z       0.0000      0.0000      1.1970
-------------------------------------------------------------------------------
   3 F     x      -0.8885      0.0054      0.0000
           y       0.0054     -0.8885      0.0000
           z       0.0000      0.0000     -0.7135
-------------------------------------------------------------------------------
   4 F     x      -0.8791     -0.2360      0.0000
           y      -0.2360     -0.8791      0.0000
           z       0.0000      0.0000     -0.8328
-------------------------------------------------------------------------------




  Elastic Constant Matrix: (Units=GPa)

-------------------------------------------------------------------------------
  Indices      1         2         3         4         5         6    
-------------------------------------------------------------------------------
       1     87.7409   24.5973   -2.9825    0.0000    0.0000    0.0000
       2     24.5973   87.7409   -2.9825    0.0000    0.0000    0.0000
       3     -2.9825   -2.9825  110.2831    0.0000    0.0000    0.0000
       4      0.0000    0.0000    0.0000    3.5095    0.0000    0.0000
       5      0.0000    0.0000    0.0000    0.0000    3.5095    0.0000
       6      0.0000    0.0000    0.0000    0.0000    0.0000   32.1083
-------------------------------------------------------------------------------


  Elastic Compliance Matrix: (Units=1/GPa)

-------------------------------------------------------------------------------
  Indices      1         2         3         4         5         6    
-------------------------------------------------------------------------------
       1    0.012376 -0.003461  0.000241  0.000000  0.000000  0.000000
       2   -0.003461  0.012376  0.000241  0.000000  0.000000  0.000000
       3    0.000241  0.000241  0.009081  0.000000  0.000000  0.000000
       4    0.000000  0.000000  0.000000  0.284943  0.000000  0.000000
       5    0.000000  0.000000  0.000000  0.000000  0.284943  0.000000
       6    0.000000  0.000000  0.000000  0.000000  0.000000  0.031145
-------------------------------------------------------------------------------

  Mechanical properties :

-------------------------------------------------------------------------------
  Convention :                    Reuss         Voigt         Hill
-------------------------------------------------------------------------------
  Bulk  Modulus (GPa)     =      35.87584      35.89219      35.88402
  Shear Modulus (GPa)     =       7.69098      25.63429      16.66263
-------------------------------------------------------------------------------
  Velocity S-wave (km/s)  =       1.62171       2.96069       2.38701
  Velocity P-wave (km/s)  =       3.97170       4.89500       4.45732
-------------------------------------------------------------------------------
  Compressibility (1/GPa) =    0.02787391
-------------------------------------------------------------------------------
  Stress axis :                     x             y             z
-------------------------------------------------------------------------------
  Youngs Moduli (GPa)     =      80.80348      80.80348     110.12475
-------------------------------------------------------------------------------
  Poissons Ratio (x)      =                     0.27968      -0.02655
  Poissons Ratio (y)      =       0.27968                    -0.02655
  Poissons Ratio (z)      =      -0.01948      -0.01948
-------------------------------------------------------------------------------


  Piezoelectric Strain Matrix: (Units=C/m**2)

-------------------------------------------------------------------------------
  Indices      1         2         3         4         5         6    
-------------------------------------------------------------------------------
       x     0.00000   0.00000   0.00000   0.00000   0.00000   0.00000
       y     0.00000   0.00000   0.00000   0.00000   0.00000   0.00000
       z     0.00000   0.00000   0.00000   0.00000   0.00000   0.00000
-------------------------------------------------------------------------------


  Piezoelectric Stress Matrix: (Units=10**-11 C/N)

-------------------------------------------------------------------------------
  Indices      1         2         3         4         5         6    
-------------------------------------------------------------------------------
       x     0.00000   0.00000   0.00000   0.00000   0.00000   0.00000
       y     0.00000   0.00000   0.00000   0.00000   0.00000   0.00000
       z     0.00000   0.00000   0.00000   0.00000   0.00000   0.00000
-------------------------------------------------------------------------------


  Static dielectric constant tensor : 

-------------------------------------------------------------------------------
              x         y         z
-------------------------------------------------------------------------------
       x    -1.96543   0.00000   0.00000
       y     0.00000  -1.96543   0.00000
       z     0.00000   0.00000   0.72316
--------------------------------------------------------------------------------

  High frequency dielectric constant tensor : 

-------------------------------------------------------------------------------
              x         y         z
-------------------------------------------------------------------------------
       x     1.45327   0.00000   0.00000
       y     0.00000   1.45327   0.00000
       z     0.00000   0.00000   1.42209
-------------------------------------------------------------------------------

  Static refractive indices : 

-------------------------------------------------------------------------------
    1 =   -1.40194      2 =   -1.40194      3 =    0.85039
-------------------------------------------------------------------------------

  High frequency refractive indices : 

-------------------------------------------------------------------------------
    1 =    1.19252      2 =    1.20552      3 =    1.20552
-------------------------------------------------------------------------------


  Time to end of optimisation =       0.0433 seconds


  Peak dynamic memory used =       0.59 MB 


  Timing analysis for GULP :

--------------------------------------------------------------------------------
  Task / Subroutine                                          Time (Seconds)
--------------------------------------------------------------------------------
  Calculation of reciprocal space energy and derivatives          0.0008
  Calculation of reciprocal space energy using symmetry           0.0033
  Calculation of real space energy and derivatives                0.0037
  Calculation of real space energy using symmetry                 0.0314
  Symmetry generation of equivalent positions                     0.0005
--------------------------------------------------------------------------------
  Total CPU time                                                  0.0433
--------------------------------------------------------------------------------


  CIF file written as perov.cif                                               


  Job Finished at 12:49.36 22nd February   2017                               

