********************************************************************************
*                       GENERAL UTILITY LATTICE PROGRAM                        *
*                                 Julian Gale                                  *
*                      Nanochemistry Research Institute                        *
*                           Department of Chemistry                            *
*                    Curtin University, Western Australia                      *
********************************************************************************
* Version = 4.3.2 * Last modified =  3rd March 2015                            *
********************************************************************************
*  optimise     - perform optimisation run                                     *
*  conp         - constant pressure calculation                                *
*  property     - calculate properties for final geometry                      *
********************************************************************************

  Job Started  at 12:49.36 22nd February   2017                               

  Number of CPUs =     1


  Total number of configurations input =   1

********************************************************************************
*  Input for Configuration =   1                                               *
********************************************************************************

  Formula = K2Zn2F6                                                     

  Number of irreducible atoms/shells =       6


  Total number atoms/shells =      16

  Dimensionality = 3               :  Bulk   


  Symmetry :

  Crystal family                   :  Tetragonal  
  Crystal class  (Groth - 1921)    :  Ditetragonal Dipyramidal             

  Space group (centrosymmetric)    :  P 4/M B M       

  Patterson group                  :  P 4/m m m

  Cartesian lattice vectors (Angstroms) :

        4.200000    0.000000    0.000000
        0.000000    4.200000    0.000000
        0.000000    0.000000    4.200000

  Cell parameters (Angstroms/Degrees):

  a =       4.2000    alpha =  90.0000
  b =       4.2000    beta  =  90.0000
  c =       4.2000    gamma =  90.0000

  Initial cell volume =          74.088000 Angs**3

  Temperature of configuration =  0.000     K 

  Pressure of configuration =         0.000 GPa 

  Fractional coordinates of asymmetric unit :

--------------------------------------------------------------------------------
   No.  Atomic       x           y          z         Charge      Occupancy
        Label      (Frac)      (Frac)     (Frac)        (e)         (Frac)  
--------------------------------------------------------------------------------
      1 K     c    0.000000    0.000000    0.000000     1.20000    1.000000    
      2 Zn    c    0.000000    0.500000    0.000000     1.90000    1.000000    
      3 F     c    0.000000    0.500000    0.500000     0.37800    1.000000    
      4 F     c    0.227100 *  0.727100    0.000000     0.37800    1.000000    
      5 F     s    0.000000    0.500000    0.500000    -1.41133    1.000000    
      6 F     s    0.227100 *  0.727100    0.000000    -1.41133    1.000000    
--------------------------------------------------------------------------------


  Constraints : 

--------------------------------------------------------------------------------
  Constraint no.      Unconstrained     Constrained    Coefficient    Offset
                         Variable         Variable
--------------------------------------------------------------------------------
           1              Strain 1        Strain 2       1.00000      0.0000
           2                 4 x             4 y         1.00000      0.5000
           3                 6 x             6 y         1.00000      0.5000
--------------------------------------------------------------------------------


********************************************************************************
*  General input information                                                   *
********************************************************************************

  Species output for all configurations : 

--------------------------------------------------------------------------------
  Species    Type    Atomic    Atomic    Charge       Radii (Angs)     Library
                     Number     Mass       (e)     Cova   Ionic  VDW   Symbol
--------------------------------------------------------------------------------
    K        Core       19      39.10   1.200000   1.330  0.000  2.800          
    Zn       Core       30      65.39   1.900000   1.450  0.000  2.160          
    F        Core        9      19.00   0.378000   0.710  0.000  1.300          
    F        Shell       9       0.00  -1.411333   0.710  0.000  1.300          
--------------------------------------------------------------------------------


  Lattice summation method               =    Ewald          (3-D)
                                         =    Parry          (2-D)
                                         =    Saunders et al (1-D)
  Accuracy factor for lattice sums       =   12.000


  Time limit = Infinity

  Maximum range for interatomic potentials =    100000.000000 Angstroms

  General interatomic potentials :

--------------------------------------------------------------------------------
Atom  Types   Potential         A         B         C         D     Cutoffs(Ang)
  1     2                                                            Min    Max 
--------------------------------------------------------------------------------
K    c K    c Buckingham    0.219E+04 0.192      0.00      0.00     0.000 10.000
Zn   c F    s Buckingham    0.148E+04 0.266      0.00      0.00     0.000 10.000
F    s F    s Buckingham     912.     0.271      13.8      0.00     0.000 10.000
K    c F    s Buckingham    0.352E+04 0.267      0.00      0.00     0.000 10.000
F    c F    s Spring (c-s)   25.5      0.00      0.00      0.00     0.000  0.800
--------------------------------------------------------------------------------

********************************************************************************
*  Output for configuration   1                                                *
********************************************************************************


  Components of energy : 

--------------------------------------------------------------------------------
  Interatomic potentials     =         162.45946484 eV
  Monopole - monopole (real) =         -48.19295094 eV
  Monopole - monopole (recip)=         -68.65109084 eV
  Monopole - monopole (total)=        -116.84404178 eV
--------------------------------------------------------------------------------
  Total lattice energy       =          45.61542306 eV
--------------------------------------------------------------------------------
  Total lattice energy       =            4401.1910 kJ/(mole unit cells)
--------------------------------------------------------------------------------


  Number of variables =        4

  Maximum number of calculations  =          1000
  Maximum Hessian update interval =            10
  Maximum step size               =   1.000000000
  Maximum parameter tolerance     =   0.000010000
  Maximum function  tolerance     =   0.000010000
  Maximum gradient  tolerance     =   0.001000000
  Maximum gradient  component     =   0.010000000

  Symmetry constrained optimisation

  Symmetry used for second derivatives

  Cell parameters to be optimised using strains

  Newton-Raphson optimiser to be used

  BFGS hessian update to be used

  Start of bulk optimisation :

  Cycle:      0 Energy:        45.615423  Gnorm:    206.648771  CPU:    0.005
  ** Hessian calculated **
  Cycle:      1 Energy:       -74.873296  Gnorm:     26.888560  CPU:    0.012
  ** Hessian calculated **
  Cycle:      2 Energy:       -75.701756  Gnorm:      6.497809  CPU:    0.018
  Cycle:      3 Energy:       -75.810251  Gnorm:      0.215045  CPU:    0.021
  Cycle:      4 Energy:       -75.810251  Gnorm:      0.215045  CPU:    0.024
  Cycle:      5 Energy:       -75.810251  Gnorm:      0.215045  CPU:    0.027
  ** Hessian calculated **
  Cycle:      6 Energy:       -75.811049  Gnorm:      0.043724  CPU:    0.032
  Cycle:      7 Energy:       -75.811077  Gnorm:      0.003427  CPU:    0.035


  **** Optimisation achieved ****


  Final energy =     -75.81107773 eV
  Final Gnorm  =       0.00081677

  Components of energy : 

--------------------------------------------------------------------------------
  Interatomic potentials     =          10.57243126 eV
  Monopole - monopole (real) =         -19.24163180 eV
  Monopole - monopole (recip)=         -67.14187719 eV
  Monopole - monopole (total)=         -86.38350899 eV
--------------------------------------------------------------------------------
  Total lattice energy       =         -75.81107773 eV
--------------------------------------------------------------------------------
  Total lattice energy       =           -7314.6101 kJ/(mole unit cells)
--------------------------------------------------------------------------------

  Final asymmetric unit coordinates :

--------------------------------------------------------------------------------
   No.  Atomic        x           y           z         Radius
        Label       (Frac)      (Frac)      (Frac)       (Angs) 
--------------------------------------------------------------------------------
     1  K     c     0.000000    0.000000    0.000000    0.000000
     2  Zn    c     0.000000    0.500000    0.000000    0.000000
     3  F     c     0.000000    0.500000    0.500000    0.000000
     4  F     c     0.218932    0.718932    0.000000    0.000000
     5  F     s     0.000000    0.500000    0.500000    0.000000
     6  F     s     0.216303    0.716303    0.000000    0.000000
--------------------------------------------------------------------------------

  Final Cartesian lattice vectors (Angstroms) :

        6.708850    0.000000    0.000000
        0.000000    6.708850    0.000000
        0.000000    0.000000    3.871408


  Final cell parameters and derivatives :

--------------------------------------------------------------------------------
       a            6.708850 Angstrom     dE/de1(xx)    -0.002286 eV/strain
       b            6.708850 Angstrom     dE/de2(yy)     0.000000 eV/strain
       c            3.871408 Angstrom     dE/de3(zz)    -0.000376 eV/strain
       alpha       90.000000 Degrees      dE/de4(yz)     0.000000 eV/strain
       beta        90.000000 Degrees      dE/de5(xz)     0.000000 eV/strain
       gamma       90.000000 Degrees      dE/de6(xy)     0.000000 eV/strain
--------------------------------------------------------------------------------

  Primitive cell volume =           174.246914 Angs**3

  Density of cell =      3.077985 g/cm**3

  Non-primitive cell volume =           174.246914 Angs**3


  Final internal derivatives :

--------------------------------------------------------------------------------
   No.  Atomic          a             b             c           Radius
        Label          (eV)          (eV)          (eV)        (eV/Angs)
--------------------------------------------------------------------------------
      1 K     c       0.000000      0.000000      0.000000      0.000000
      2 Zn    c       0.000000      0.000000      0.000000      0.000000
      3 F     c       0.000000      0.000000      0.000000      0.000000
      4 F     c      -0.002241      0.000000      0.000000      0.000000
      5 F     s       0.000000      0.000000      0.000000      0.000000
      6 F     s      -0.000531      0.000000      0.000000      0.000000
--------------------------------------------------------------------------------
  Maximum abs         0.002241      0.000000      0.000000      0.000000
--------------------------------------------------------------------------------


  Born effective charge tensors : 

-------------------------------------------------------------------------------
  Atom             x           y             z
-------------------------------------------------------------------------------
   1 K     x       0.9955     -0.0028      0.0000
           y       0.0028      0.9955      0.0000
           z       0.0000      0.0000      1.1854
-------------------------------------------------------------------------------
   2 Zn    x       1.7472     -0.1563      0.0000
           y      -0.1563      1.7472      0.0000
           z       0.0000      0.0000      1.3414
-------------------------------------------------------------------------------
   3 F     x      -0.9184      0.0091      0.0000
           y       0.0091     -0.9184      0.0000
           z       0.0000      0.0000     -0.7518
-------------------------------------------------------------------------------
   4 F     x      -0.9121     -0.2141      0.0000
           y      -0.2141     -0.9121      0.0000
           z       0.0000      0.0000     -0.8875
-------------------------------------------------------------------------------




  Elastic Constant Matrix: (Units=GPa)

-------------------------------------------------------------------------------
  Indices      1         2         3         4         5         6    
-------------------------------------------------------------------------------
       1    100.0022   24.5041   -3.5582    0.0000    0.0000    0.0000
       2     24.5041  100.0022   -3.5582    0.0000    0.0000    0.0000
       3     -3.5582   -3.5582  134.6254    0.0000    0.0000    0.0000
       4      0.0000    0.0000    0.0000    3.5516    0.0000    0.0000
       5      0.0000    0.0000    0.0000    0.0000    3.5516    0.0000
       6      0.0000    0.0000    0.0000    0.0000    0.0000   27.5895
-------------------------------------------------------------------------------


  Elastic Compliance Matrix: (Units=1/GPa)

-------------------------------------------------------------------------------
  Indices      1         2         3         4         5         6    
-------------------------------------------------------------------------------
       1    0.010645 -0.002601  0.000213  0.000000  0.000000  0.000000
       2   -0.002601  0.010645  0.000213  0.000000  0.000000  0.000000
       3    0.000213  0.000213  0.007439  0.000000  0.000000  0.000000
       4    0.000000  0.000000  0.000000  0.281560  0.000000  0.000000
       5    0.000000  0.000000  0.000000  0.000000  0.281560  0.000000
       6    0.000000  0.000000  0.000000  0.000000  0.000000  0.036246
-------------------------------------------------------------------------------

  Mechanical properties :

-------------------------------------------------------------------------------
  Convention :                    Reuss         Voigt         Hill
-------------------------------------------------------------------------------
  Bulk  Modulus (GPa)     =      41.02159      41.04504      41.03331
  Shear Modulus (GPa)     =       7.80554      28.08802      17.94678
-------------------------------------------------------------------------------
  Velocity S-wave (km/s)  =       1.59246       3.02084       2.41468
  Velocity P-wave (km/s)  =       4.08762       5.04998       4.59407
-------------------------------------------------------------------------------
  Compressibility (1/GPa) =    0.02437741
-------------------------------------------------------------------------------
  Stress axis :                     x             y             z
-------------------------------------------------------------------------------
  Youngs Moduli (GPa)     =      93.94415      93.94415     134.42201
-------------------------------------------------------------------------------
  Poissons Ratio (x)      =                     0.24433      -0.02858
  Poissons Ratio (y)      =       0.24433                    -0.02858
  Poissons Ratio (z)      =      -0.01997      -0.01997
-------------------------------------------------------------------------------


  Piezoelectric Strain Matrix: (Units=C/m**2)

-------------------------------------------------------------------------------
  Indices      1         2         3         4         5         6    
-------------------------------------------------------------------------------
       x     0.00000   0.00000   0.00000   0.00000   0.00000   0.00000
       y     0.00000   0.00000   0.00000   0.00000   0.00000   0.00000
       z     0.00000   0.00000   0.00000   0.00000   0.00000   0.00000
-------------------------------------------------------------------------------


  Piezoelectric Stress Matrix: (Units=10**-11 C/N)

-------------------------------------------------------------------------------
  Indices      1         2         3         4         5         6    
-------------------------------------------------------------------------------
       x     0.00000   0.00000   0.00000   0.00000   0.00000   0.00000
       y     0.00000   0.00000   0.00000   0.00000   0.00000   0.00000
       z     0.00000   0.00000   0.00000   0.00000   0.00000   0.00000
-------------------------------------------------------------------------------


  Static dielectric constant tensor : 

-------------------------------------------------------------------------------
              x         y         z
-------------------------------------------------------------------------------
       x     0.76346   0.00000   0.00000
       y     0.00000   0.76346   0.00000
       z     0.00000   0.00000   0.80217
--------------------------------------------------------------------------------

  High frequency dielectric constant tensor : 

-------------------------------------------------------------------------------
              x         y         z
-------------------------------------------------------------------------------
       x     1.46540   0.00000   0.00000
       y     0.00000   1.46540   0.00000
       z     0.00000   0.00000   1.44238
-------------------------------------------------------------------------------

  Static refractive indices : 

-------------------------------------------------------------------------------
    1 =    0.87376      2 =    0.87376      3 =    0.89564
-------------------------------------------------------------------------------

  High frequency refractive indices : 

-------------------------------------------------------------------------------
    1 =    1.20099      2 =    1.21054      3 =    1.21054
-------------------------------------------------------------------------------


  Time to end of optimisation =       0.0432 seconds


  Peak dynamic memory used =       0.59 MB 


  Timing analysis for GULP :

--------------------------------------------------------------------------------
  Task / Subroutine                                          Time (Seconds)
--------------------------------------------------------------------------------
  Calculation of reciprocal space energy and derivatives          0.0009
  Calculation of reciprocal space energy using symmetry           0.0036
  Calculation of real space energy and derivatives                0.0037
  Calculation of real space energy using symmetry                 0.0313
  Symmetry generation of equivalent positions                     0.0004
--------------------------------------------------------------------------------
  Total CPU time                                                  0.0432
--------------------------------------------------------------------------------


  CIF file written as perov.cif                                               


  Job Finished at 12:49.36 22nd February   2017                               

