********************************************************************************
*                       GENERAL UTILITY LATTICE PROGRAM                        *
*                                 Julian Gale                                  *
*                      Nanochemistry Research Institute                        *
*                           Department of Chemistry                            *
*                    Curtin University, Western Australia                      *
********************************************************************************
* Version = 4.3.2 * Last modified =  3rd March 2015                            *
********************************************************************************
*  optimise     - perform optimisation run                                     *
*  conp         - constant pressure calculation                                *
*  property     - calculate properties for final geometry                      *
********************************************************************************

  Job Started  at 12:49.32 22nd February   2017                               

  Number of CPUs =     1


  Total number of configurations input =   1

********************************************************************************
*  Input for Configuration =   1                                               *
********************************************************************************

  Formula = K2Zn2F6                                                     

  Number of irreducible atoms/shells =       6


  Total number atoms/shells =      16

  Dimensionality = 3               :  Bulk   


  Symmetry :

  Crystal family                   :  Tetragonal  
  Crystal class  (Groth - 1921)    :  Ditetragonal Dipyramidal             

  Space group (centrosymmetric)    :  P 4/M B M       

  Patterson group                  :  P 4/m m m

  Cartesian lattice vectors (Angstroms) :

        4.200000    0.000000    0.000000
        0.000000    4.200000    0.000000
        0.000000    0.000000    4.200000

  Cell parameters (Angstroms/Degrees):

  a =       4.2000    alpha =  90.0000
  b =       4.2000    beta  =  90.0000
  c =       4.2000    gamma =  90.0000

  Initial cell volume =          74.088000 Angs**3

  Temperature of configuration =  0.000     K 

  Pressure of configuration =         0.000 GPa 

  Fractional coordinates of asymmetric unit :

--------------------------------------------------------------------------------
   No.  Atomic       x           y          z         Charge      Occupancy
        Label      (Frac)      (Frac)     (Frac)        (e)         (Frac)  
--------------------------------------------------------------------------------
      1 K     c    0.000000    0.000000    0.000000     0.60000    1.000000    
      2 Zn    c    0.000000    0.500000    0.000000     1.80000    1.000000    
      3 F     c    0.000000    0.500000    0.500000     0.37800    1.000000    
      4 F     c    0.227100 *  0.727100    0.000000     0.37800    1.000000    
      5 F     s    0.000000    0.500000    0.500000    -1.17800    1.000000    
      6 F     s    0.227100 *  0.727100    0.000000    -1.17800    1.000000    
--------------------------------------------------------------------------------


  Constraints : 

--------------------------------------------------------------------------------
  Constraint no.      Unconstrained     Constrained    Coefficient    Offset
                         Variable         Variable
--------------------------------------------------------------------------------
           1              Strain 1        Strain 2       1.00000      0.0000
           2                 4 x             4 y         1.00000      0.5000
           3                 6 x             6 y         1.00000      0.5000
--------------------------------------------------------------------------------


********************************************************************************
*  General input information                                                   *
********************************************************************************

  Species output for all configurations : 

--------------------------------------------------------------------------------
  Species    Type    Atomic    Atomic    Charge       Radii (Angs)     Library
                     Number     Mass       (e)     Cova   Ionic  VDW   Symbol
--------------------------------------------------------------------------------
    K        Core       19      39.10   0.600000   1.330  0.000  2.800          
    Zn       Core       30      65.39   1.800000   1.450  0.000  2.160          
    F        Core        9      19.00   0.378000   0.710  0.000  1.300          
    F        Shell       9       0.00  -1.178000   0.710  0.000  1.300          
--------------------------------------------------------------------------------


  Lattice summation method               =    Ewald          (3-D)
                                         =    Parry          (2-D)
                                         =    Saunders et al (1-D)
  Accuracy factor for lattice sums       =   12.000


  Time limit = Infinity

  Maximum range for interatomic potentials =    100000.000000 Angstroms

  General interatomic potentials :

--------------------------------------------------------------------------------
Atom  Types   Potential         A         B         C         D     Cutoffs(Ang)
  1     2                                                            Min    Max 
--------------------------------------------------------------------------------
K    c K    c Buckingham    0.219E+04 0.192      0.00      0.00     0.000 10.000
Zn   c F    s Buckingham    0.148E+04 0.266      0.00      0.00     0.000 10.000
F    s F    s Buckingham     912.     0.271      13.8      0.00     0.000 10.000
K    c F    s Buckingham    0.352E+04 0.267      0.00      0.00     0.000 10.000
F    c F    s Spring (c-s)   17.8      0.00      0.00      0.00     0.000  0.800
--------------------------------------------------------------------------------

********************************************************************************
*  Output for configuration   1                                                *
********************************************************************************


  Components of energy : 

--------------------------------------------------------------------------------
  Interatomic potentials     =         162.45946484 eV
  Monopole - monopole (real) =         -31.03627775 eV
  Monopole - monopole (recip)=         -46.06214316 eV
  Monopole - monopole (total)=         -77.09842091 eV
--------------------------------------------------------------------------------
  Total lattice energy       =          85.36104393 eV
--------------------------------------------------------------------------------
  Total lattice energy       =            8236.0359 kJ/(mole unit cells)
--------------------------------------------------------------------------------


  Number of variables =        4

  Maximum number of calculations  =          1000
  Maximum Hessian update interval =            10
  Maximum step size               =   1.000000000
  Maximum parameter tolerance     =   0.000010000
  Maximum function  tolerance     =   0.000010000
  Maximum gradient  tolerance     =   0.001000000
  Maximum gradient  component     =   0.010000000

  Symmetry constrained optimisation

  Symmetry used for second derivatives

  Cell parameters to be optimised using strains

  Newton-Raphson optimiser to be used

  BFGS hessian update to be used

  Start of bulk optimisation :

  Cycle:      0 Energy:        85.361044  Gnorm:    214.900357  CPU:    0.005
  ** Hessian calculated **
  Cycle:      1 Energy:       -46.541930  Gnorm:     29.501544  CPU:    0.012
  ** Hessian calculated **
  Cycle:      2 Energy:       -47.800604  Gnorm:      8.504931  CPU:    0.017
  ** Hessian calculated **
  Cycle:      3 Energy:       -48.154763  Gnorm:     16.029583  CPU:    0.025
  Cycle:      4 Energy:       -48.184153  Gnorm:     11.313836  CPU:    0.028
  ** Hessian calculated **
  Cycle:      5 Energy:       -48.384771  Gnorm:     11.311632  CPU:    0.033
  Cycle:      6 Energy:       -48.464123  Gnorm:      3.221641  CPU:    0.036
  Cycle:      7 Energy:       -48.483917  Gnorm:      2.293510  CPU:    0.040
  Cycle:      8 Energy:       -48.491342  Gnorm:      0.731292  CPU:    0.043
  Cycle:      9 Energy:       -48.493694  Gnorm:      0.144638  CPU:    0.047
  Cycle:     10 Energy:       -48.493924  Gnorm:      0.071187  CPU:    0.050
  Cycle:     11 Energy:       -48.493954  Gnorm:      0.063930  CPU:    0.053
  Cycle:     12 Energy:       -48.493972  Gnorm:      0.028410  CPU:    0.056
  Cycle:     13 Energy:       -48.493978  Gnorm:      0.010531  CPU:    0.059
  Cycle:     14 Energy:       -48.493979  Gnorm:      0.009759  CPU:    0.063
  ** Hessian calculated **
  Cycle:     15 Energy:       -48.493980  Gnorm:      0.001209  CPU:    0.067


  **** Optimisation achieved ****


  Final energy =     -48.49397958 eV
  Final Gnorm  =       0.00047974

  Components of energy : 

--------------------------------------------------------------------------------
  Interatomic potentials     =           6.84047370 eV
  Monopole - monopole (real) =         -12.04706911 eV
  Monopole - monopole (recip)=         -43.28738417 eV
  Monopole - monopole (total)=         -55.33445328 eV
--------------------------------------------------------------------------------
  Total lattice energy       =         -48.49397958 eV
--------------------------------------------------------------------------------
  Total lattice energy       =           -4678.9277 kJ/(mole unit cells)
--------------------------------------------------------------------------------

  Final asymmetric unit coordinates :

--------------------------------------------------------------------------------
   No.  Atomic        x           y           z         Radius
        Label       (Frac)      (Frac)      (Frac)       (Angs) 
--------------------------------------------------------------------------------
     1  K     c     0.000000    0.000000    0.000000    0.000000
     2  Zn    c     0.000000    0.500000    0.000000    0.000000
     3  F     c     0.000000    0.500000    0.500000    0.000000
     4  F     c     0.198122    0.698122    0.000000    0.000000
     5  F     s     0.000000    0.500000    0.500000    0.000000
     6  F     s     0.192651    0.692651    0.000000    0.000000
--------------------------------------------------------------------------------

  Final Cartesian lattice vectors (Angstroms) :

        7.445324    0.000000    0.000000
        0.000000    7.445324    0.000000
        0.000000    0.000000    4.091082


  Final cell parameters and derivatives :

--------------------------------------------------------------------------------
       a            7.445324 Angstrom     dE/de1(xx)    -0.000920 eV/strain
       b            7.445324 Angstrom     dE/de2(yy)     0.000000 eV/strain
       c            4.091082 Angstrom     dE/de3(zz)    -0.000056 eV/strain
       alpha       90.000000 Degrees      dE/de4(yz)     0.000000 eV/strain
       beta        90.000000 Degrees      dE/de5(xz)     0.000000 eV/strain
       gamma       90.000000 Degrees      dE/de6(xy)     0.000000 eV/strain
--------------------------------------------------------------------------------

  Primitive cell volume =           226.780327 Angs**3

  Density of cell =      2.364973 g/cm**3

  Non-primitive cell volume =           226.780327 Angs**3


  Final internal derivatives :

--------------------------------------------------------------------------------
   No.  Atomic          a             b             c           Radius
        Label          (eV)          (eV)          (eV)        (eV/Angs)
--------------------------------------------------------------------------------
      1 K     c       0.000000      0.000000      0.000000      0.000000
      2 Zn    c       0.000000      0.000000      0.000000      0.000000
      3 F     c       0.000000      0.000000      0.000000      0.000000
      4 F     c      -0.000712      0.000000      0.000000      0.000000
      5 F     s       0.000000      0.000000      0.000000      0.000000
      6 F     s      -0.001526      0.000000      0.000000      0.000000
--------------------------------------------------------------------------------
  Maximum abs         0.001526      0.000000      0.000000      0.000000
--------------------------------------------------------------------------------


  Born effective charge tensors : 

-------------------------------------------------------------------------------
  Atom             x           y             z
-------------------------------------------------------------------------------
   1 K     x       0.5127     -0.0005      0.0000
           y       0.0005      0.5127      0.0000
           z       0.0000      0.0000      0.5991
-------------------------------------------------------------------------------
   2 Zn    x       1.4355     -0.2149      0.0000
           y      -0.2149      1.4355      0.0000
           z       0.0000      0.0000      1.3786
-------------------------------------------------------------------------------
   3 F     x      -0.6462      0.0075      0.0000
           y       0.0075     -0.6462      0.0000
           z       0.0000      0.0000     -0.5696
-------------------------------------------------------------------------------
   4 F     x      -0.6510     -0.0597      0.0000
           y      -0.0597     -0.6510      0.0000
           z       0.0000      0.0000     -0.7040
-------------------------------------------------------------------------------




  Elastic Constant Matrix: (Units=GPa)

-------------------------------------------------------------------------------
  Indices      1         2         3         4         5         6    
-------------------------------------------------------------------------------
       1     31.7536    5.0364   -1.2816    0.0000    0.0000    0.0000
       2      5.0364   31.7536   -1.2816    0.0000    0.0000    0.0000
       3     -1.2816   -1.2816   78.9616    0.0000    0.0000    0.0000
       4      0.0000    0.0000    0.0000    0.8665    0.0000    0.0000
       5      0.0000    0.0000    0.0000    0.0000    0.8665    0.0000
       6      0.0000    0.0000    0.0000    0.0000    0.0000    2.4821
-------------------------------------------------------------------------------


  Elastic Compliance Matrix: (Units=1/GPa)

-------------------------------------------------------------------------------
  Indices      1         2         3         4         5         6    
-------------------------------------------------------------------------------
       1    0.032321 -0.005108  0.000442  0.000000  0.000000  0.000000
       2   -0.005108  0.032321  0.000442  0.000000  0.000000  0.000000
       3    0.000442  0.000442  0.012679  0.000000  0.000000  0.000000
       4    0.000000  0.000000  0.000000  1.154066  0.000000  0.000000
       5    0.000000  0.000000  0.000000  0.000000  1.154066  0.000000
       6    0.000000  0.000000  0.000000  0.000000  0.000000  0.402891
-------------------------------------------------------------------------------

  Mechanical properties :

-------------------------------------------------------------------------------
  Convention :                    Reuss         Voigt         Hill
-------------------------------------------------------------------------------
  Bulk  Modulus (GPa)     =      14.52020      16.37946      15.44983
  Shear Modulus (GPa)     =       1.77321      10.17606       5.97463
-------------------------------------------------------------------------------
  Velocity S-wave (km/s)  =       0.86590       2.07432       1.58943
  Velocity P-wave (km/s)  =       2.67196       3.55850       3.14661
-------------------------------------------------------------------------------
  Compressibility (1/GPa) =    0.06886959
-------------------------------------------------------------------------------
  Stress axis :                     x             y             z
-------------------------------------------------------------------------------
  Youngs Moduli (GPa)     =      30.94008      30.94008      78.87230
-------------------------------------------------------------------------------
  Poissons Ratio (x)      =                     0.15806      -0.03484
  Poissons Ratio (y)      =       0.15806                    -0.03484
  Poissons Ratio (z)      =      -0.01367      -0.01367
-------------------------------------------------------------------------------


  Piezoelectric Strain Matrix: (Units=C/m**2)

-------------------------------------------------------------------------------
  Indices      1         2         3         4         5         6    
-------------------------------------------------------------------------------
       x     0.00000   0.00000   0.00000   0.00000   0.00000   0.00000
       y     0.00000   0.00000   0.00000   0.00000   0.00000   0.00000
       z     0.00000   0.00000   0.00000   0.00000   0.00000   0.00000
-------------------------------------------------------------------------------


  Piezoelectric Stress Matrix: (Units=10**-11 C/N)

-------------------------------------------------------------------------------
  Indices      1         2         3         4         5         6    
-------------------------------------------------------------------------------
       x     0.00000   0.00000   0.00000   0.00000   0.00000   0.00000
       y     0.00000   0.00000   0.00000   0.00000   0.00000   0.00000
       z     0.00000   0.00000   0.00000   0.00000   0.00000   0.00000
-------------------------------------------------------------------------------


  Static dielectric constant tensor : 

-------------------------------------------------------------------------------
              x         y         z
-------------------------------------------------------------------------------
       x     2.86343   0.00000   0.00000
       y     0.00000   2.86343   0.00000
       z     0.00000   0.00000   1.58202
--------------------------------------------------------------------------------

  High frequency dielectric constant tensor : 

-------------------------------------------------------------------------------
              x         y         z
-------------------------------------------------------------------------------
       x     1.33747   0.00000   0.00000
       y     0.00000   1.33747   0.00000
       z     0.00000   0.00000   1.34746
-------------------------------------------------------------------------------

  Static refractive indices : 

-------------------------------------------------------------------------------
    1 =    1.25778      2 =    1.69217      3 =    1.69217
-------------------------------------------------------------------------------

  High frequency refractive indices : 

-------------------------------------------------------------------------------
    1 =    1.15649      2 =    1.15649      3 =    1.16080
-------------------------------------------------------------------------------


  Time to end of optimisation =       0.0758 seconds


  Peak dynamic memory used =       0.59 MB 


  Timing analysis for GULP :

--------------------------------------------------------------------------------
  Task / Subroutine                                          Time (Seconds)
--------------------------------------------------------------------------------
  Calculation of reciprocal space energy and derivatives          0.0010
  Calculation of reciprocal space energy using symmetry           0.0069
  Calculation of real space energy and derivatives                0.0037
  Calculation of real space energy using symmetry                 0.0601
  Symmetry generation of equivalent positions                     0.0005
--------------------------------------------------------------------------------
  Total CPU time                                                  0.0758
--------------------------------------------------------------------------------


  CIF file written as perov.cif                                               


  Job Finished at 12:49.32 22nd February   2017                               

