********************************************************************************
*                       GENERAL UTILITY LATTICE PROGRAM                        *
*                                 Julian Gale                                  *
*                      Nanochemistry Research Institute                        *
*                           Department of Chemistry                            *
*                    Curtin University, Western Australia                      *
********************************************************************************
* Version = 4.3.2 * Last modified =  3rd March 2015                            *
********************************************************************************
*  optimise     - perform optimisation run                                     *
*  conp         - constant pressure calculation                                *
*  property     - calculate properties for final geometry                      *
********************************************************************************

  Job Started  at 12:49.32 22nd February   2017                               

  Number of CPUs =     1


  Total number of configurations input =   1

********************************************************************************
*  Input for Configuration =   1                                               *
********************************************************************************

  Formula = K2Zn2F6                                                     

  Number of irreducible atoms/shells =       6


  Total number atoms/shells =      16

  Dimensionality = 3               :  Bulk   


  Symmetry :

  Crystal family                   :  Tetragonal  
  Crystal class  (Groth - 1921)    :  Ditetragonal Dipyramidal             

  Space group (centrosymmetric)    :  P 4/M B M       

  Patterson group                  :  P 4/m m m

  Cartesian lattice vectors (Angstroms) :

        4.200000    0.000000    0.000000
        0.000000    4.200000    0.000000
        0.000000    0.000000    4.200000

  Cell parameters (Angstroms/Degrees):

  a =       4.2000    alpha =  90.0000
  b =       4.2000    beta  =  90.0000
  c =       4.2000    gamma =  90.0000

  Initial cell volume =          74.088000 Angs**3

  Temperature of configuration =  0.000     K 

  Pressure of configuration =         0.000 GPa 

  Fractional coordinates of asymmetric unit :

--------------------------------------------------------------------------------
   No.  Atomic       x           y          z         Charge      Occupancy
        Label      (Frac)      (Frac)     (Frac)        (e)         (Frac)  
--------------------------------------------------------------------------------
      1 K     c    0.000000    0.000000    0.000000     0.60000    1.000000    
      2 Zn    c    0.000000    0.500000    0.000000     2.30000    1.000000    
      3 F     c    0.000000    0.500000    0.500000     0.37800    1.000000    
      4 F     c    0.227100 *  0.727100    0.000000     0.37800    1.000000    
      5 F     s    0.000000    0.500000    0.500000    -1.34467    1.000000    
      6 F     s    0.227100 *  0.727100    0.000000    -1.34467    1.000000    
--------------------------------------------------------------------------------


  Constraints : 

--------------------------------------------------------------------------------
  Constraint no.      Unconstrained     Constrained    Coefficient    Offset
                         Variable         Variable
--------------------------------------------------------------------------------
           1              Strain 1        Strain 2       1.00000      0.0000
           2                 4 x             4 y         1.00000      0.5000
           3                 6 x             6 y         1.00000      0.5000
--------------------------------------------------------------------------------


********************************************************************************
*  General input information                                                   *
********************************************************************************

  Species output for all configurations : 

--------------------------------------------------------------------------------
  Species    Type    Atomic    Atomic    Charge       Radii (Angs)     Library
                     Number     Mass       (e)     Cova   Ionic  VDW   Symbol
--------------------------------------------------------------------------------
    K        Core       19      39.10   0.600000   1.330  0.000  2.800          
    Zn       Core       30      65.39   2.300000   1.450  0.000  2.160          
    F        Core        9      19.00   0.378000   0.710  0.000  1.300          
    F        Shell       9       0.00  -1.344667   0.710  0.000  1.300          
--------------------------------------------------------------------------------


  Lattice summation method               =    Ewald          (3-D)
                                         =    Parry          (2-D)
                                         =    Saunders et al (1-D)
  Accuracy factor for lattice sums       =   12.000


  Time limit = Infinity

  Maximum range for interatomic potentials =    100000.000000 Angstroms

  General interatomic potentials :

--------------------------------------------------------------------------------
Atom  Types   Potential         A         B         C         D     Cutoffs(Ang)
  1     2                                                            Min    Max 
--------------------------------------------------------------------------------
K    c K    c Buckingham    0.219E+04 0.192      0.00      0.00     0.000 10.000
Zn   c F    s Buckingham    0.148E+04 0.266      0.00      0.00     0.000 10.000
F    s F    s Buckingham     912.     0.271      13.8      0.00     0.000 10.000
K    c F    s Buckingham    0.352E+04 0.267      0.00      0.00     0.000 10.000
F    c F    s Spring (c-s)   23.2      0.00      0.00      0.00     0.000  0.800
--------------------------------------------------------------------------------

********************************************************************************
*  Output for configuration   1                                                *
********************************************************************************


  Components of energy : 

--------------------------------------------------------------------------------
  Interatomic potentials     =         162.45946484 eV
  Monopole - monopole (real) =         -46.64532801 eV
  Monopole - monopole (recip)=         -70.61273328 eV
  Monopole - monopole (total)=        -117.25806129 eV
--------------------------------------------------------------------------------
  Total lattice energy       =          45.20140355 eV
--------------------------------------------------------------------------------
  Total lattice energy       =            4361.2445 kJ/(mole unit cells)
--------------------------------------------------------------------------------


  Number of variables =        4

  Maximum number of calculations  =          1000
  Maximum Hessian update interval =            10
  Maximum step size               =   1.000000000
  Maximum parameter tolerance     =   0.000010000
  Maximum function  tolerance     =   0.000010000
  Maximum gradient  tolerance     =   0.001000000
  Maximum gradient  component     =   0.010000000

  Symmetry constrained optimisation

  Symmetry used for second derivatives

  Cell parameters to be optimised using strains

  Newton-Raphson optimiser to be used

  BFGS hessian update to be used

  Start of bulk optimisation :

  Cycle:      0 Energy:        45.201404  Gnorm:    204.675025  CPU:    0.005
  ** Hessian calculated **
  Cycle:      1 Energy:       -75.465114  Gnorm:     35.043648  CPU:    0.012
  ** Hessian calculated **
  Cycle:      2 Energy:       -77.487536  Gnorm:     19.563386  CPU:    0.018
  ** Hessian calculated **
  Cycle:      3 Energy:       -77.744144  Gnorm:      6.362346  CPU:    0.023
  Cycle:      4 Energy:       -77.976807  Gnorm:      7.085875  CPU:    0.028
  Cycle:      5 Energy:       -78.489230  Gnorm:      7.854099  CPU:    0.031
  Cycle:      6 Energy:       -78.753807  Gnorm:      8.549892  CPU:    0.035
  Cycle:      7 Energy:       -78.869202  Gnorm:      2.483541  CPU:    0.038
  Cycle:      8 Energy:       -78.883068  Gnorm:      0.856496  CPU:    0.042
  Cycle:      9 Energy:       -78.884387  Gnorm:      0.581083  CPU:    0.045
  Cycle:     10 Energy:       -78.884662  Gnorm:      0.170554  CPU:    0.049
  Cycle:     11 Energy:       -78.884679  Gnorm:      0.020393  CPU:    0.052
  Cycle:     12 Energy:       -78.884680  Gnorm:      0.012078  CPU:    0.055
  ** Hessian calculated **


  **** Optimisation achieved ****


  Final energy =     -78.88467965 eV
  Final Gnorm  =       0.00061266

  Components of energy : 

--------------------------------------------------------------------------------
  Interatomic potentials     =          12.61902476 eV
  Monopole - monopole (real) =         -26.56290746 eV
  Monopole - monopole (recip)=         -64.94079695 eV
  Monopole - monopole (total)=         -91.50370441 eV
--------------------------------------------------------------------------------
  Total lattice energy       =         -78.88467965 eV
--------------------------------------------------------------------------------
  Total lattice energy       =           -7611.1657 kJ/(mole unit cells)
--------------------------------------------------------------------------------

  Final asymmetric unit coordinates :

--------------------------------------------------------------------------------
   No.  Atomic        x           y           z         Radius
        Label       (Frac)      (Frac)      (Frac)       (Angs) 
--------------------------------------------------------------------------------
     1  K     c     0.000000    0.000000    0.000000    0.000000
     2  Zn    c     0.000000    0.500000    0.000000    0.000000
     3  F     c     0.000000    0.500000    0.500000    0.000000
     4  F     c     0.313792    0.813792    0.000000    0.000000
     5  F     s     0.000000    0.500000    0.500000    0.000000
     6  F     s     0.321462    0.821462    0.000000    0.000000
--------------------------------------------------------------------------------

  Final Cartesian lattice vectors (Angstroms) :

        7.238234    0.000000    0.000000
        0.000000    7.238234    0.000000
        0.000000    0.000000    3.795186


  Final cell parameters and derivatives :

--------------------------------------------------------------------------------
       a            7.238234 Angstrom     dE/de1(xx)    -0.000870 eV/strain
       b            7.238234 Angstrom     dE/de2(yy)     0.000000 eV/strain
       c            3.795186 Angstrom     dE/de3(zz)     0.000029 eV/strain
       alpha       90.000000 Degrees      dE/de4(yz)     0.000000 eV/strain
       beta        90.000000 Degrees      dE/de5(xz)     0.000000 eV/strain
       gamma       90.000000 Degrees      dE/de6(xy)     0.000000 eV/strain
--------------------------------------------------------------------------------

  Primitive cell volume =           198.837530 Angs**3

  Density of cell =      2.697325 g/cm**3

  Non-primitive cell volume =           198.837530 Angs**3


  Final internal derivatives :

--------------------------------------------------------------------------------
   No.  Atomic          a             b             c           Radius
        Label          (eV)          (eV)          (eV)        (eV/Angs)
--------------------------------------------------------------------------------
      1 K     c       0.000000      0.000000      0.000000      0.000000
      2 Zn    c       0.000000      0.000000      0.000000      0.000000
      3 F     c       0.000000      0.000000      0.000000      0.000000
      4 F     c       0.002290      0.000000      0.000000      0.000000
      5 F     s       0.000000      0.000000      0.000000      0.000000
      6 F     s       0.000070      0.000000      0.000000      0.000000
--------------------------------------------------------------------------------
  Maximum abs         0.002290      0.000000      0.000000      0.000000
--------------------------------------------------------------------------------


  Born effective charge tensors : 

-------------------------------------------------------------------------------
  Atom             x           y             z
-------------------------------------------------------------------------------
   1 K     x       0.5239     -0.0009      0.0000
           y       0.0009      0.5239      0.0000
           z       0.0000      0.0000      0.6036
-------------------------------------------------------------------------------
   2 Zn    x       1.6191      0.3408      0.0000
           y       0.3408      1.6191      0.0000
           z       0.0000      0.0000      1.7548
-------------------------------------------------------------------------------
   3 F     x      -0.7113     -0.0105      0.0000
           y      -0.0105     -0.7113      0.0000
           z       0.0000      0.0000     -0.6778
-------------------------------------------------------------------------------
   4 F     x      -0.7159     -0.0100      0.0000
           y      -0.0100     -0.7159      0.0000
           z       0.0000      0.0000     -0.8403
-------------------------------------------------------------------------------




  Elastic Constant Matrix: (Units=GPa)

-------------------------------------------------------------------------------
  Indices      1         2         3         4         5         6    
-------------------------------------------------------------------------------
       1     44.5588    3.7134   -2.1259    0.0000    0.0000    0.0000
       2      3.7134   44.5588   -2.1259    0.0000    0.0000    0.0000
       3     -2.1259   -2.1259  130.9238    0.0000    0.0000    0.0000
       4      0.0000    0.0000    0.0000    0.5635    0.0000    0.0000
       5      0.0000    0.0000    0.0000    0.0000    0.5635    0.0000
       6      0.0000    0.0000    0.0000    0.0000    0.0000    0.3589
-------------------------------------------------------------------------------


  Elastic Compliance Matrix: (Units=1/GPa)

-------------------------------------------------------------------------------
  Indices      1         2         3         4         5         6    
-------------------------------------------------------------------------------
       1    0.022614 -0.001869  0.000337  0.000000  0.000000  0.000000
       2   -0.001869  0.022614  0.000337  0.000000  0.000000  0.000000
       3    0.000337  0.000337  0.007649  0.000000  0.000000  0.000000
       4    0.000000  0.000000  0.000000  1.774693  0.000000  0.000000
       5    0.000000  0.000000  0.000000  0.000000  1.774693  0.000000
       6    0.000000  0.000000  0.000000  0.000000  0.000000  2.785977
-------------------------------------------------------------------------------

  Mechanical properties :

-------------------------------------------------------------------------------
  Convention :                    Reuss         Voigt         Hill
-------------------------------------------------------------------------------
  Bulk  Modulus (GPa)     =      19.80690      24.32942      22.06816
  Shear Modulus (GPa)     =       0.78034      15.00249       7.89142
-------------------------------------------------------------------------------
  Velocity S-wave (km/s)  =       0.53787       2.35839       1.71045
  Velocity P-wave (km/s)  =       2.78009       4.05411       3.47597
-------------------------------------------------------------------------------
  Compressibility (1/GPa) =    0.05048745
-------------------------------------------------------------------------------
  Stress axis :                     x             y             z
-------------------------------------------------------------------------------
  Youngs Moduli (GPa)     =      44.22031      44.22031     130.73656
-------------------------------------------------------------------------------
  Poissons Ratio (x)      =                     0.08263      -0.04404
  Poissons Ratio (y)      =       0.08263                    -0.04404
  Poissons Ratio (z)      =      -0.01490      -0.01490
-------------------------------------------------------------------------------


  Piezoelectric Strain Matrix: (Units=C/m**2)

-------------------------------------------------------------------------------
  Indices      1         2         3         4         5         6    
-------------------------------------------------------------------------------
       x     0.00000   0.00000   0.00000   0.00000   0.00000   0.00000
       y     0.00000   0.00000   0.00000   0.00000   0.00000   0.00000
       z     0.00000   0.00000   0.00000   0.00000   0.00000   0.00000
-------------------------------------------------------------------------------


  Piezoelectric Stress Matrix: (Units=10**-11 C/N)

-------------------------------------------------------------------------------
  Indices      1         2         3         4         5         6    
-------------------------------------------------------------------------------
       x     0.00000   0.00000   0.00000   0.00000   0.00000   0.00000
       y     0.00000   0.00000   0.00000   0.00000   0.00000   0.00000
       z     0.00000   0.00000   0.00000   0.00000   0.00000   0.00000
-------------------------------------------------------------------------------


  Static dielectric constant tensor : 

-------------------------------------------------------------------------------
              x         y         z
-------------------------------------------------------------------------------
       x    22.26193   0.00000   0.00000
       y     0.00000  22.26193   0.00000
       z     0.00000   0.00000   1.73267
--------------------------------------------------------------------------------

  High frequency dielectric constant tensor : 

-------------------------------------------------------------------------------
              x         y         z
-------------------------------------------------------------------------------
       x     1.35695   0.00000   0.00000
       y     0.00000   1.35695   0.00000
       z     0.00000   0.00000   1.39249
-------------------------------------------------------------------------------

  Static refractive indices : 

-------------------------------------------------------------------------------
    1 =    1.31631      2 =    4.71825      3 =    4.71825
-------------------------------------------------------------------------------

  High frequency refractive indices : 

-------------------------------------------------------------------------------
    1 =    1.16488      2 =    1.16488      3 =    1.18004
-------------------------------------------------------------------------------


  Time to end of optimisation =       0.0660 seconds


  Peak dynamic memory used =       0.59 MB 


  Timing analysis for GULP :

--------------------------------------------------------------------------------
  Task / Subroutine                                          Time (Seconds)
--------------------------------------------------------------------------------
  Calculation of reciprocal space energy and derivatives          0.0010
  Calculation of reciprocal space energy using symmetry           0.0058
  Calculation of real space energy and derivatives                0.0039
  Calculation of real space energy using symmetry                 0.0510
  Symmetry generation of equivalent positions                     0.0005
--------------------------------------------------------------------------------
  Total CPU time                                                  0.0661
--------------------------------------------------------------------------------


  CIF file written as perov.cif                                               


  Job Finished at 12:49.32 22nd February   2017                               

