********************************************************************************
*                       GENERAL UTILITY LATTICE PROGRAM                        *
*                                 Julian Gale                                  *
*                      Nanochemistry Research Institute                        *
*                           Department of Chemistry                            *
*                    Curtin University, Western Australia                      *
********************************************************************************
* Version = 4.3.2 * Last modified =  3rd March 2015                            *
********************************************************************************
*  optimise     - perform optimisation run                                     *
*  conp         - constant pressure calculation                                *
*  property     - calculate properties for final geometry                      *
********************************************************************************

  Job Started  at 12:49.33 22nd February   2017                               

  Number of CPUs =     1


  Total number of configurations input =   1

********************************************************************************
*  Input for Configuration =   1                                               *
********************************************************************************

  Formula = K2Zn2F6                                                     

  Number of irreducible atoms/shells =       6


  Total number atoms/shells =      16

  Dimensionality = 3               :  Bulk   


  Symmetry :

  Crystal family                   :  Tetragonal  
  Crystal class  (Groth - 1921)    :  Ditetragonal Dipyramidal             

  Space group (centrosymmetric)    :  P 4/M B M       

  Patterson group                  :  P 4/m m m

  Cartesian lattice vectors (Angstroms) :

        4.200000    0.000000    0.000000
        0.000000    4.200000    0.000000
        0.000000    0.000000    4.200000

  Cell parameters (Angstroms/Degrees):

  a =       4.2000    alpha =  90.0000
  b =       4.2000    beta  =  90.0000
  c =       4.2000    gamma =  90.0000

  Initial cell volume =          74.088000 Angs**3

  Temperature of configuration =  0.000     K 

  Pressure of configuration =         0.000 GPa 

  Fractional coordinates of asymmetric unit :

--------------------------------------------------------------------------------
   No.  Atomic       x           y          z         Charge      Occupancy
        Label      (Frac)      (Frac)     (Frac)        (e)         (Frac)  
--------------------------------------------------------------------------------
      1 K     c    0.000000    0.000000    0.000000     0.80000    1.000000    
      2 Zn    c    0.000000    0.500000    0.000000     1.70000    1.000000    
      3 F     c    0.000000    0.500000    0.500000     0.37800    1.000000    
      4 F     c    0.227100 *  0.727100    0.000000     0.37800    1.000000    
      5 F     s    0.000000    0.500000    0.500000    -1.21133    1.000000    
      6 F     s    0.227100 *  0.727100    0.000000    -1.21133    1.000000    
--------------------------------------------------------------------------------


  Constraints : 

--------------------------------------------------------------------------------
  Constraint no.      Unconstrained     Constrained    Coefficient    Offset
                         Variable         Variable
--------------------------------------------------------------------------------
           1              Strain 1        Strain 2       1.00000      0.0000
           2                 4 x             4 y         1.00000      0.5000
           3                 6 x             6 y         1.00000      0.5000
--------------------------------------------------------------------------------


********************************************************************************
*  General input information                                                   *
********************************************************************************

  Species output for all configurations : 

--------------------------------------------------------------------------------
  Species    Type    Atomic    Atomic    Charge       Radii (Angs)     Library
                     Number     Mass       (e)     Cova   Ionic  VDW   Symbol
--------------------------------------------------------------------------------
    K        Core       19      39.10   0.800000   1.330  0.000  2.800          
    Zn       Core       30      65.39   1.700000   1.450  0.000  2.160          
    F        Core        9      19.00   0.378000   0.710  0.000  1.300          
    F        Shell       9       0.00  -1.211333   0.710  0.000  1.300          
--------------------------------------------------------------------------------


  Lattice summation method               =    Ewald          (3-D)
                                         =    Parry          (2-D)
                                         =    Saunders et al (1-D)
  Accuracy factor for lattice sums       =   12.000


  Time limit = Infinity

  Maximum range for interatomic potentials =    100000.000000 Angstroms

  General interatomic potentials :

--------------------------------------------------------------------------------
Atom  Types   Potential         A         B         C         D     Cutoffs(Ang)
  1     2                                                            Min    Max 
--------------------------------------------------------------------------------
K    c K    c Buckingham    0.219E+04 0.192      0.00      0.00     0.000 10.000
Zn   c F    s Buckingham    0.148E+04 0.266      0.00      0.00     0.000 10.000
F    s F    s Buckingham     912.     0.271      13.8      0.00     0.000 10.000
K    c F    s Buckingham    0.352E+04 0.267      0.00      0.00     0.000 10.000
F    c F    s Spring (c-s)   18.8      0.00      0.00      0.00     0.000  0.800
--------------------------------------------------------------------------------

********************************************************************************
*  Output for configuration   1                                                *
********************************************************************************


  Components of energy : 

--------------------------------------------------------------------------------
  Interatomic potentials     =         162.45946484 eV
  Monopole - monopole (real) =         -32.33090610 eV
  Monopole - monopole (recip)=         -46.76234133 eV
  Monopole - monopole (total)=         -79.09324743 eV
--------------------------------------------------------------------------------
  Total lattice energy       =          83.36621741 eV
--------------------------------------------------------------------------------
  Total lattice energy       =            8043.5656 kJ/(mole unit cells)
--------------------------------------------------------------------------------


  Number of variables =        4

  Maximum number of calculations  =          1000
  Maximum Hessian update interval =            10
  Maximum step size               =   1.000000000
  Maximum parameter tolerance     =   0.000010000
  Maximum function  tolerance     =   0.000010000
  Maximum gradient  tolerance     =   0.001000000
  Maximum gradient  component     =   0.010000000

  Symmetry constrained optimisation

  Symmetry used for second derivatives

  Cell parameters to be optimised using strains

  Newton-Raphson optimiser to be used

  BFGS hessian update to be used

  Start of bulk optimisation :

  Cycle:      0 Energy:        83.366217  Gnorm:    215.028363  CPU:    0.005
  ** Hessian calculated **
  Cycle:      1 Energy:       -47.884653  Gnorm:     27.218162  CPU:    0.012
  ** Hessian calculated **
  Cycle:      2 Energy:       -48.621724  Gnorm:     14.314400  CPU:    0.017
  Cycle:      3 Energy:       -48.998240  Gnorm:      3.696944  CPU:    0.023
  Cycle:      4 Energy:       -49.290555  Gnorm:      7.941192  CPU:    0.027
  Cycle:      5 Energy:       -49.298493  Gnorm:      6.139336  CPU:    0.031
  Cycle:      6 Energy:       -49.328914  Gnorm:      0.759648  CPU:    0.035
  Cycle:      7 Energy:       -49.330739  Gnorm:      0.313152  CPU:    0.038
  Cycle:      8 Energy:       -49.330859  Gnorm:      0.064685  CPU:    0.041
  Cycle:      9 Energy:       -49.330863  Gnorm:      0.005012  CPU:    0.044


  **** Optimisation achieved ****


  Final energy =     -49.33086302 eV
  Final Gnorm  =       0.00012070

  Components of energy : 

--------------------------------------------------------------------------------
  Interatomic potentials     =           6.65553729 eV
  Monopole - monopole (real) =         -10.98737610 eV
  Monopole - monopole (recip)=         -44.99902421 eV
  Monopole - monopole (total)=         -55.98640031 eV
--------------------------------------------------------------------------------
  Total lattice energy       =         -49.33086302 eV
--------------------------------------------------------------------------------
  Total lattice energy       =           -4759.6742 kJ/(mole unit cells)
--------------------------------------------------------------------------------

  Final asymmetric unit coordinates :

--------------------------------------------------------------------------------
   No.  Atomic        x           y           z         Radius
        Label       (Frac)      (Frac)      (Frac)       (Angs) 
--------------------------------------------------------------------------------
     1  K     c     0.000000    0.000000    0.000000    0.000000
     2  Zn    c     0.000000    0.500000    0.000000    0.000000
     3  F     c     0.000000    0.500000    0.500000    0.000000
     4  F     c     0.290979    0.790979    0.000000    0.000000
     5  F     s     0.000000    0.500000    0.500000    0.000000
     6  F     s     0.294799    0.794799    0.000000    0.000000
--------------------------------------------------------------------------------

  Final Cartesian lattice vectors (Angstroms) :

        7.224015    0.000000    0.000000
        0.000000    7.224015    0.000000
        0.000000    0.000000    4.099434


  Final cell parameters and derivatives :

--------------------------------------------------------------------------------
       a            7.224015 Angstrom     dE/de1(xx)     0.000021 eV/strain
       b            7.224015 Angstrom     dE/de2(yy)     0.000000 eV/strain
       c            4.099434 Angstrom     dE/de3(zz)    -0.000177 eV/strain
       alpha       90.000000 Degrees      dE/de4(yz)     0.000000 eV/strain
       beta        90.000000 Degrees      dE/de5(xz)     0.000000 eV/strain
       gamma       90.000000 Degrees      dE/de6(xy)     0.000000 eV/strain
--------------------------------------------------------------------------------

  Primitive cell volume =           213.934706 Angs**3

  Density of cell =      2.506977 g/cm**3

  Non-primitive cell volume =           213.934706 Angs**3


  Final internal derivatives :

--------------------------------------------------------------------------------
   No.  Atomic          a             b             c           Radius
        Label          (eV)          (eV)          (eV)        (eV/Angs)
--------------------------------------------------------------------------------
      1 K     c       0.000000      0.000000      0.000000      0.000000
      2 Zn    c       0.000000      0.000000      0.000000      0.000000
      3 F     c       0.000000      0.000000      0.000000      0.000000
      4 F     c       0.000334      0.000000      0.000000      0.000000
      5 F     s       0.000000      0.000000      0.000000      0.000000
      6 F     s      -0.000300      0.000000      0.000000      0.000000
--------------------------------------------------------------------------------
  Maximum abs         0.000334      0.000000      0.000000      0.000000
--------------------------------------------------------------------------------


  Born effective charge tensors : 

-------------------------------------------------------------------------------
  Atom             x           y             z
-------------------------------------------------------------------------------
   1 K     x       0.6764      0.0014      0.0000
           y      -0.0014      0.6764      0.0000
           z       0.0000      0.0000      0.7931
-------------------------------------------------------------------------------
   2 Zn    x       1.4686      0.1667      0.0000
           y       0.1667      1.4686      0.0000
           z       0.0000      0.0000      1.2684
-------------------------------------------------------------------------------
   3 F     x      -0.7125     -0.0071      0.0000
           y      -0.0071     -0.7125      0.0000
           z       0.0000      0.0000     -0.6028
-------------------------------------------------------------------------------
   4 F     x      -0.7163     -0.1174      0.0000
           y      -0.1174     -0.7163      0.0000
           z       0.0000      0.0000     -0.7294
-------------------------------------------------------------------------------




  Elastic Constant Matrix: (Units=GPa)

-------------------------------------------------------------------------------
  Indices      1         2         3         4         5         6    
-------------------------------------------------------------------------------
       1     44.8110    9.5957   -1.6824    0.0000    0.0000    0.0000
       2      9.5957   44.8110   -1.6824    0.0000    0.0000    0.0000
       3     -1.6824   -1.6824   82.5135    0.0000    0.0000    0.0000
       4      0.0000    0.0000    0.0000    1.4259    0.0000    0.0000
       5      0.0000    0.0000    0.0000    0.0000    1.4259    0.0000
       6      0.0000    0.0000    0.0000    0.0000    0.0000    8.3158
-------------------------------------------------------------------------------


  Elastic Compliance Matrix: (Units=1/GPa)

-------------------------------------------------------------------------------
  Indices      1         2         3         4         5         6    
-------------------------------------------------------------------------------
       1    0.023400 -0.004997  0.000375  0.000000  0.000000  0.000000
       2   -0.004997  0.023400  0.000375  0.000000  0.000000  0.000000
       3    0.000375  0.000375  0.012135  0.000000  0.000000  0.000000
       4    0.000000  0.000000  0.000000  0.701312  0.000000  0.000000
       5    0.000000  0.000000  0.000000  0.000000  0.701312  0.000000
       6    0.000000  0.000000  0.000000  0.000000  0.000000  0.120253
-------------------------------------------------------------------------------

  Mechanical properties :

-------------------------------------------------------------------------------
  Convention :                    Reuss         Voigt         Hill
-------------------------------------------------------------------------------
  Bulk  Modulus (GPa)     =      19.82471      20.51080      20.16775
  Shear Modulus (GPa)     =       3.11116      13.29383       8.20249
-------------------------------------------------------------------------------
  Velocity S-wave (km/s)  =       1.11400       2.30277       1.80883
  Velocity P-wave (km/s)  =       3.09233       3.90535       3.52238
-------------------------------------------------------------------------------
  Compressibility (1/GPa) =    0.05044210
-------------------------------------------------------------------------------
  Stress axis :                     x             y             z
-------------------------------------------------------------------------------
  Youngs Moduli (GPa)     =      42.73498      42.73498      82.40948
-------------------------------------------------------------------------------
  Poissons Ratio (x)      =                     0.21353      -0.03092
  Poissons Ratio (y)      =       0.21353                    -0.03092
  Poissons Ratio (z)      =      -0.01604      -0.01604
-------------------------------------------------------------------------------


  Piezoelectric Strain Matrix: (Units=C/m**2)

-------------------------------------------------------------------------------
  Indices      1         2         3         4         5         6    
-------------------------------------------------------------------------------
       x     0.00000   0.00000   0.00000   0.00000   0.00000   0.00000
       y     0.00000   0.00000   0.00000   0.00000   0.00000   0.00000
       z     0.00000   0.00000   0.00000   0.00000   0.00000   0.00000
-------------------------------------------------------------------------------


  Piezoelectric Stress Matrix: (Units=10**-11 C/N)

-------------------------------------------------------------------------------
  Indices      1         2         3         4         5         6    
-------------------------------------------------------------------------------
       x     0.00000   0.00000   0.00000   0.00000   0.00000   0.00000
       y     0.00000   0.00000   0.00000   0.00000   0.00000   0.00000
       z     0.00000   0.00000   0.00000   0.00000   0.00000   0.00000
-------------------------------------------------------------------------------


  Static dielectric constant tensor : 

-------------------------------------------------------------------------------
              x         y         z
-------------------------------------------------------------------------------
       x     2.49546   0.00000   0.00000
       y     0.00000   2.49546   0.00000
       z     0.00000   0.00000   1.20106
--------------------------------------------------------------------------------

  High frequency dielectric constant tensor : 

-------------------------------------------------------------------------------
              x         y         z
-------------------------------------------------------------------------------
       x     1.37174   0.00000   0.00000
       y     0.00000   1.37174   0.00000
       z     0.00000   0.00000   1.36664
-------------------------------------------------------------------------------

  Static refractive indices : 

-------------------------------------------------------------------------------
    1 =    1.09593      2 =    1.57970      3 =    1.57970
-------------------------------------------------------------------------------

  High frequency refractive indices : 

-------------------------------------------------------------------------------
    1 =    1.16903      2 =    1.17121      3 =    1.17121
-------------------------------------------------------------------------------


  Time to end of optimisation =       0.0531 seconds


  Peak dynamic memory used =       0.59 MB 


  Timing analysis for GULP :

--------------------------------------------------------------------------------
  Task / Subroutine                                          Time (Seconds)
--------------------------------------------------------------------------------
  Calculation of reciprocal space energy and derivatives          0.0009
  Calculation of reciprocal space energy using symmetry           0.0045
  Calculation of real space energy and derivatives                0.0038
  Calculation of real space energy using symmetry                 0.0398
  Symmetry generation of equivalent positions                     0.0005
--------------------------------------------------------------------------------
  Total CPU time                                                  0.0531
--------------------------------------------------------------------------------


  CIF file written as perov.cif                                               


  Job Finished at 12:49.33 22nd February   2017                               

