********************************************************************************
*                       GENERAL UTILITY LATTICE PROGRAM                        *
*                                 Julian Gale                                  *
*                      Nanochemistry Research Institute                        *
*                           Department of Chemistry                            *
*                    Curtin University, Western Australia                      *
********************************************************************************
* Version = 4.3.2 * Last modified =  3rd March 2015                            *
********************************************************************************
*  optimise     - perform optimisation run                                     *
*  conp         - constant pressure calculation                                *
*  property     - calculate properties for final geometry                      *
********************************************************************************

  Job Started  at 12:49.38 22nd February   2017                               

  Number of CPUs =     1


  Total number of configurations input =   1

********************************************************************************
*  Input for Configuration =   1                                               *
********************************************************************************

  Formula = K2Zn2F6                                                     

  Number of irreducible atoms/shells =       6


  Total number atoms/shells =      16

  Dimensionality = 3               :  Bulk   


  Symmetry :

  Crystal family                   :  Tetragonal  
  Crystal class  (Groth - 1921)    :  Ditetragonal Dipyramidal             

  Space group (centrosymmetric)    :  P 4/M B M       

  Patterson group                  :  P 4/m m m

  Cartesian lattice vectors (Angstroms) :

        4.200000    0.000000    0.000000
        0.000000    4.200000    0.000000
        0.000000    0.000000    4.200000

  Cell parameters (Angstroms/Degrees):

  a =       4.2000    alpha =  90.0000
  b =       4.2000    beta  =  90.0000
  c =       4.2000    gamma =  90.0000

  Initial cell volume =          74.088000 Angs**3

  Temperature of configuration =  0.000     K 

  Pressure of configuration =         0.000 GPa 

  Fractional coordinates of asymmetric unit :

--------------------------------------------------------------------------------
   No.  Atomic       x           y          z         Charge      Occupancy
        Label      (Frac)      (Frac)     (Frac)        (e)         (Frac)  
--------------------------------------------------------------------------------
      1 K     c    0.000000    0.000000    0.000000     1.50000    1.000000    
      2 Zn    c    0.000000    0.500000    0.000000     1.50000    1.000000    
      3 F     c    0.000000    0.500000    0.500000     0.37800    1.000000    
      4 F     c    0.227100 *  0.727100    0.000000     0.37800    1.000000    
      5 F     s    0.000000    0.500000    0.500000    -1.37800    1.000000    
      6 F     s    0.227100 *  0.727100    0.000000    -1.37800    1.000000    
--------------------------------------------------------------------------------


  Constraints : 

--------------------------------------------------------------------------------
  Constraint no.      Unconstrained     Constrained    Coefficient    Offset
                         Variable         Variable
--------------------------------------------------------------------------------
           1              Strain 1        Strain 2       1.00000      0.0000
           2                 4 x             4 y         1.00000      0.5000
           3                 6 x             6 y         1.00000      0.5000
--------------------------------------------------------------------------------


********************************************************************************
*  General input information                                                   *
********************************************************************************

  Species output for all configurations : 

--------------------------------------------------------------------------------
  Species    Type    Atomic    Atomic    Charge       Radii (Angs)     Library
                     Number     Mass       (e)     Cova   Ionic  VDW   Symbol
--------------------------------------------------------------------------------
    K        Core       19      39.10   1.500000   1.330  0.000  2.800          
    Zn       Core       30      65.39   1.500000   1.450  0.000  2.160          
    F        Core        9      19.00   0.378000   0.710  0.000  1.300          
    F        Shell       9       0.00  -1.378000   0.710  0.000  1.300          
--------------------------------------------------------------------------------


  Lattice summation method               =    Ewald          (3-D)
                                         =    Parry          (2-D)
                                         =    Saunders et al (1-D)
  Accuracy factor for lattice sums       =   12.000


  Time limit = Infinity

  Maximum range for interatomic potentials =    100000.000000 Angstroms

  General interatomic potentials :

--------------------------------------------------------------------------------
Atom  Types   Potential         A         B         C         D     Cutoffs(Ang)
  1     2                                                            Min    Max 
--------------------------------------------------------------------------------
K    c K    c Buckingham    0.219E+04 0.192      0.00      0.00     0.000 10.000
Zn   c F    s Buckingham    0.148E+04 0.266      0.00      0.00     0.000 10.000
F    s F    s Buckingham     912.     0.271      13.8      0.00     0.000 10.000
K    c F    s Buckingham    0.352E+04 0.267      0.00      0.00     0.000 10.000
F    c F    s Spring (c-s)   24.3      0.00      0.00      0.00     0.000  0.800
--------------------------------------------------------------------------------

********************************************************************************
*  Output for configuration   1                                                *
********************************************************************************


  Components of energy : 

--------------------------------------------------------------------------------
  Interatomic potentials     =         162.45946484 eV
  Monopole - monopole (real) =         -43.70037560 eV
  Monopole - monopole (recip)=         -62.25879583 eV
  Monopole - monopole (total)=        -105.95917143 eV
--------------------------------------------------------------------------------
  Total lattice energy       =          56.50029341 eV
--------------------------------------------------------------------------------
  Total lattice energy       =            5451.4146 kJ/(mole unit cells)
--------------------------------------------------------------------------------


  Number of variables =        4

  Maximum number of calculations  =          1000
  Maximum Hessian update interval =            10
  Maximum step size               =   1.000000000
  Maximum parameter tolerance     =   0.000010000
  Maximum function  tolerance     =   0.000010000
  Maximum gradient  tolerance     =   0.001000000
  Maximum gradient  component     =   0.010000000

  Symmetry constrained optimisation

  Symmetry used for second derivatives

  Cell parameters to be optimised using strains

  Newton-Raphson optimiser to be used

  BFGS hessian update to be used

  Start of bulk optimisation :

  Cycle:      0 Energy:        56.500293  Gnorm:    210.877969  CPU:    0.005
  ** Hessian calculated **
  Cycle:      1 Energy:       -65.840889  Gnorm:     18.376061  CPU:    0.012
  ** Hessian calculated **
  Cycle:      2 Energy:       -66.270740  Gnorm:      5.276097  CPU:    0.017
  Cycle:      3 Energy:       -66.311400  Gnorm:      0.109683  CPU:    0.020
  Cycle:      4 Energy:       -66.311425  Gnorm:      0.027143  CPU:    0.024
  Cycle:      5 Energy:       -66.311427  Gnorm:      0.003188  CPU:    0.027


  **** Optimisation achieved ****


  Final energy =     -66.31142719 eV
  Final Gnorm  =       0.00000473

  Components of energy : 

--------------------------------------------------------------------------------
  Interatomic potentials     =           8.67342175 eV
  Monopole - monopole (real) =         -27.32903392 eV
  Monopole - monopole (recip)=         -47.65581503 eV
  Monopole - monopole (total)=         -74.98484894 eV
--------------------------------------------------------------------------------
  Total lattice energy       =         -66.31142719 eV
--------------------------------------------------------------------------------
  Total lattice energy       =           -6398.0391 kJ/(mole unit cells)
--------------------------------------------------------------------------------

  Final asymmetric unit coordinates :

--------------------------------------------------------------------------------
   No.  Atomic        x           y           z         Radius
        Label       (Frac)      (Frac)      (Frac)       (Angs) 
--------------------------------------------------------------------------------
     1  K     c     0.000000    0.000000    0.000000    0.000000
     2  Zn    c     0.000000    0.500000    0.000000    0.000000
     3  F     c     0.000000    0.500000    0.500000    0.000000
     4  F     c     0.250000    0.750000    0.000000    0.000000
     5  F     s     0.000000    0.500000    0.500000    0.000000
     6  F     s     0.250000    0.750000    0.000000    0.000000
--------------------------------------------------------------------------------

  Final Cartesian lattice vectors (Angstroms) :

        6.635250    0.000000    0.000000
        0.000000    6.635250    0.000000
        0.000000    0.000000    4.089089


  Final cell parameters and derivatives :

--------------------------------------------------------------------------------
       a            6.635250 Angstrom     dE/de1(xx)    -0.000002 eV/strain
       b            6.635250 Angstrom     dE/de2(yy)     0.000000 eV/strain
       c            4.089089 Angstrom     dE/de3(zz)    -0.000002 eV/strain
       alpha       90.000000 Degrees      dE/de4(yz)     0.000000 eV/strain
       beta        90.000000 Degrees      dE/de5(xz)     0.000000 eV/strain
       gamma       90.000000 Degrees      dE/de6(xy)     0.000000 eV/strain
--------------------------------------------------------------------------------

  Primitive cell volume =           180.028451 Angs**3

  Density of cell =      2.979137 g/cm**3

  Non-primitive cell volume =           180.028451 Angs**3


  Final internal derivatives :

--------------------------------------------------------------------------------
   No.  Atomic          a             b             c           Radius
        Label          (eV)          (eV)          (eV)        (eV/Angs)
--------------------------------------------------------------------------------
      1 K     c       0.000000      0.000000      0.000000      0.000000
      2 Zn    c       0.000000      0.000000      0.000000      0.000000
      3 F     c       0.000000      0.000000      0.000000      0.000000
      4 F     c      -0.000017      0.000000      0.000000      0.000000
      5 F     s       0.000000      0.000000      0.000000      0.000000
      6 F     s       0.000009      0.000000      0.000000      0.000000
--------------------------------------------------------------------------------
  Maximum abs         0.000017      0.000000      0.000000      0.000000
--------------------------------------------------------------------------------


  Born effective charge tensors : 

-------------------------------------------------------------------------------
  Atom             x           y             z
-------------------------------------------------------------------------------
   1 K     x       1.2640      0.0000      0.0000
           y       0.0000      1.2640      0.0000
           z       0.0000      0.0000      1.4501
-------------------------------------------------------------------------------
   2 Zn    x       1.4707      0.0000      0.0000
           y       0.0000      1.4707      0.0000
           z       0.0000      0.0000      1.0571
-------------------------------------------------------------------------------
   3 F     x      -0.9648      0.0000      0.0000
           y       0.0000     -0.9648      0.0000
           z       0.0000      0.0000     -0.8034
-------------------------------------------------------------------------------
   4 F     x      -0.8849     -0.2075      0.0000
           y      -0.2075     -0.8849      0.0000
           z       0.0000      0.0000     -0.8519
-------------------------------------------------------------------------------




  Elastic Constant Matrix: (Units=GPa)

-------------------------------------------------------------------------------
  Indices      1         2         3         4         5         6    
-------------------------------------------------------------------------------
       1    115.5597   48.1015    2.7029    0.0000    0.0000    0.0000
       2     48.1015  115.5597    2.7029    0.0000    0.0000    0.0000
       3      2.7029    2.7029  105.6241    0.0000    0.0000    0.0000
       4      0.0000    0.0000    0.0000    2.7029    0.0000    0.0000
       5      0.0000    0.0000    0.0000    0.0000    2.7029    0.0000
       6      0.0000    0.0000    0.0000    0.0000    0.0000   48.1015
-------------------------------------------------------------------------------


  Elastic Compliance Matrix: (Units=1/GPa)

-------------------------------------------------------------------------------
  Indices      1         2         3         4         5         6    
-------------------------------------------------------------------------------
       1    0.010470 -0.004354 -0.000156  0.000000  0.000000  0.000000
       2   -0.004354  0.010470 -0.000156  0.000000  0.000000  0.000000
       3   -0.000156 -0.000156  0.009476  0.000000  0.000000  0.000000
       4    0.000000  0.000000  0.000000  0.369968  0.000000  0.000000
       5    0.000000  0.000000  0.000000  0.000000  0.369968  0.000000
       6    0.000000  0.000000  0.000000  0.000000  0.000000  0.020789
-------------------------------------------------------------------------------

  Mechanical properties :

-------------------------------------------------------------------------------
  Convention :                    Reuss         Voigt         Hill
-------------------------------------------------------------------------------
  Bulk  Modulus (GPa)     =      47.43770      49.30647      48.37208
  Shear Modulus (GPa)     =       6.19194      29.58388      17.88791
-------------------------------------------------------------------------------
  Velocity S-wave (km/s)  =       1.44168       3.15125       2.45039
  Velocity P-wave (km/s)  =       4.32372       5.45812       4.92370
-------------------------------------------------------------------------------
  Compressibility (1/GPa) =    0.02108028
-------------------------------------------------------------------------------
  Stress axis :                     x             y             z
-------------------------------------------------------------------------------
  Youngs Moduli (GPa)     =      95.51391      95.51391     105.53480
-------------------------------------------------------------------------------
  Poissons Ratio (x)      =                     0.41590       0.01652
  Poissons Ratio (y)      =       0.41590                     0.01652
  Poissons Ratio (z)      =       0.01495       0.01495
-------------------------------------------------------------------------------


  Piezoelectric Strain Matrix: (Units=C/m**2)

-------------------------------------------------------------------------------
  Indices      1         2         3         4         5         6    
-------------------------------------------------------------------------------
       x     0.00000   0.00000   0.00000   0.00000   0.00000   0.00000
       y     0.00000   0.00000   0.00000   0.00000   0.00000   0.00000
       z     0.00000   0.00000   0.00000   0.00000   0.00000   0.00000
-------------------------------------------------------------------------------


  Piezoelectric Stress Matrix: (Units=10**-11 C/N)

-------------------------------------------------------------------------------
  Indices      1         2         3         4         5         6    
-------------------------------------------------------------------------------
       x     0.00000   0.00000   0.00000   0.00000   0.00000   0.00000
       y     0.00000   0.00000   0.00000   0.00000   0.00000   0.00000
       z     0.00000   0.00000   0.00000   0.00000   0.00000   0.00000
-------------------------------------------------------------------------------


  Static dielectric constant tensor : 

-------------------------------------------------------------------------------
              x         y         z
-------------------------------------------------------------------------------
       x   -16.77307   0.00000   0.00000
       y     0.00000 -16.77307   0.00000
       z     0.00000   0.00000   0.22787
--------------------------------------------------------------------------------

  High frequency dielectric constant tensor : 

-------------------------------------------------------------------------------
              x         y         z
-------------------------------------------------------------------------------
       x     1.46096   0.00000   0.00000
       y     0.00000   1.46096   0.00000
       z     0.00000   0.00000   1.43399
-------------------------------------------------------------------------------

  Static refractive indices : 

-------------------------------------------------------------------------------
    1 =   -4.09549      2 =   -4.09549      3 =    0.47736
-------------------------------------------------------------------------------

  High frequency refractive indices : 

-------------------------------------------------------------------------------
    1 =    1.19749      2 =    1.20870      3 =    1.20870
-------------------------------------------------------------------------------


  Time to end of optimisation =       0.0352 seconds


  Peak dynamic memory used =       0.59 MB 


  Timing analysis for GULP :

--------------------------------------------------------------------------------
  Task / Subroutine                                          Time (Seconds)
--------------------------------------------------------------------------------
  Calculation of reciprocal space energy and derivatives          0.0008
  Calculation of reciprocal space energy using symmetry           0.0026
  Calculation of real space energy and derivatives                0.0038
  Calculation of real space energy using symmetry                 0.0245
  Symmetry generation of equivalent positions                     0.0004
--------------------------------------------------------------------------------
  Total CPU time                                                  0.0352
--------------------------------------------------------------------------------


  CIF file written as perov.cif                                               


  Job Finished at 12:49.38 22nd February   2017                               

