********************************************************************************
*                       GENERAL UTILITY LATTICE PROGRAM                        *
*                                 Julian Gale                                  *
*                      Nanochemistry Research Institute                        *
*                           Department of Chemistry                            *
*                    Curtin University, Western Australia                      *
********************************************************************************
* Version = 4.3.2 * Last modified =  3rd March 2015                            *
********************************************************************************
*  optimise     - perform optimisation run                                     *
*  conp         - constant pressure calculation                                *
*  property     - calculate properties for final geometry                      *
********************************************************************************

  Job Started  at 12:49.36 22nd February   2017                               

  Number of CPUs =     1


  Total number of configurations input =   1

********************************************************************************
*  Input for Configuration =   1                                               *
********************************************************************************

  Formula = K2Zn2F6                                                     

  Number of irreducible atoms/shells =       6


  Total number atoms/shells =      16

  Dimensionality = 3               :  Bulk   


  Symmetry :

  Crystal family                   :  Tetragonal  
  Crystal class  (Groth - 1921)    :  Ditetragonal Dipyramidal             

  Space group (centrosymmetric)    :  P 4/M B M       

  Patterson group                  :  P 4/m m m

  Cartesian lattice vectors (Angstroms) :

        4.200000    0.000000    0.000000
        0.000000    4.200000    0.000000
        0.000000    0.000000    4.200000

  Cell parameters (Angstroms/Degrees):

  a =       4.2000    alpha =  90.0000
  b =       4.2000    beta  =  90.0000
  c =       4.2000    gamma =  90.0000

  Initial cell volume =          74.088000 Angs**3

  Temperature of configuration =  0.000     K 

  Pressure of configuration =         0.000 GPa 

  Fractional coordinates of asymmetric unit :

--------------------------------------------------------------------------------
   No.  Atomic       x           y          z         Charge      Occupancy
        Label      (Frac)      (Frac)     (Frac)        (e)         (Frac)  
--------------------------------------------------------------------------------
      1 K     c    0.000000    0.000000    0.000000     1.10000    1.000000    
      2 Zn    c    0.000000    0.500000    0.000000     1.90000    1.000000    
      3 F     c    0.000000    0.500000    0.500000     0.37800    1.000000    
      4 F     c    0.227100 *  0.727100    0.000000     0.37800    1.000000    
      5 F     s    0.000000    0.500000    0.500000    -1.37800    1.000000    
      6 F     s    0.227100 *  0.727100    0.000000    -1.37800    1.000000    
--------------------------------------------------------------------------------


  Constraints : 

--------------------------------------------------------------------------------
  Constraint no.      Unconstrained     Constrained    Coefficient    Offset
                         Variable         Variable
--------------------------------------------------------------------------------
           1              Strain 1        Strain 2       1.00000      0.0000
           2                 4 x             4 y         1.00000      0.5000
           3                 6 x             6 y         1.00000      0.5000
--------------------------------------------------------------------------------


********************************************************************************
*  General input information                                                   *
********************************************************************************

  Species output for all configurations : 

--------------------------------------------------------------------------------
  Species    Type    Atomic    Atomic    Charge       Radii (Angs)     Library
                     Number     Mass       (e)     Cova   Ionic  VDW   Symbol
--------------------------------------------------------------------------------
    K        Core       19      39.10   1.100000   1.330  0.000  2.800          
    Zn       Core       30      65.39   1.900000   1.450  0.000  2.160          
    F        Core        9      19.00   0.378000   0.710  0.000  1.300          
    F        Shell       9       0.00  -1.378000   0.710  0.000  1.300          
--------------------------------------------------------------------------------


  Lattice summation method               =    Ewald          (3-D)
                                         =    Parry          (2-D)
                                         =    Saunders et al (1-D)
  Accuracy factor for lattice sums       =   12.000


  Time limit = Infinity

  Maximum range for interatomic potentials =    100000.000000 Angstroms

  General interatomic potentials :

--------------------------------------------------------------------------------
Atom  Types   Potential         A         B         C         D     Cutoffs(Ang)
  1     2                                                            Min    Max 
--------------------------------------------------------------------------------
K    c K    c Buckingham    0.219E+04 0.192      0.00      0.00     0.000 10.000
Zn   c F    s Buckingham    0.148E+04 0.266      0.00      0.00     0.000 10.000
F    s F    s Buckingham     912.     0.271      13.8      0.00     0.000 10.000
K    c F    s Buckingham    0.352E+04 0.267      0.00      0.00     0.000 10.000
F    c F    s Spring (c-s)   24.3      0.00      0.00      0.00     0.000  0.800
--------------------------------------------------------------------------------

********************************************************************************
*  Output for configuration   1                                                *
********************************************************************************


  Components of energy : 

--------------------------------------------------------------------------------
  Interatomic potentials     =         162.45946484 eV
  Monopole - monopole (real) =         -45.52199581 eV
  Monopole - monopole (recip)=         -65.07551738 eV
  Monopole - monopole (total)=        -110.59751319 eV
--------------------------------------------------------------------------------
  Total lattice energy       =          51.86195165 eV
--------------------------------------------------------------------------------
  Total lattice energy       =            5003.8856 kJ/(mole unit cells)
--------------------------------------------------------------------------------


  Number of variables =        4

  Maximum number of calculations  =          1000
  Maximum Hessian update interval =            10
  Maximum step size               =   1.000000000
  Maximum parameter tolerance     =   0.000010000
  Maximum function  tolerance     =   0.000010000
  Maximum gradient  tolerance     =   0.001000000
  Maximum gradient  component     =   0.010000000

  Symmetry constrained optimisation

  Symmetry used for second derivatives

  Cell parameters to be optimised using strains

  Newton-Raphson optimiser to be used

  BFGS hessian update to be used

  Start of bulk optimisation :

  Cycle:      0 Energy:        51.861952  Gnorm:    207.871725  CPU:    0.005
  ** Hessian calculated **
  Cycle:      1 Energy:       -70.472505  Gnorm:     27.794562  CPU:    0.012
  ** Hessian calculated **
  Cycle:      2 Energy:       -70.902951  Gnorm:     19.773139  CPU:    0.017
  Cycle:      3 Energy:       -71.366278  Gnorm:      4.071130  CPU:    0.020
  Cycle:      4 Energy:       -71.501902  Gnorm:      4.129905  CPU:    0.024
  Cycle:      5 Energy:       -71.525379  Gnorm:      0.558289  CPU:    0.028
  Cycle:      6 Energy:       -71.525696  Gnorm:      0.047790  CPU:    0.031
  Cycle:      7 Energy:       -71.525700  Gnorm:      0.001007  CPU:    0.034


  **** Optimisation achieved ****


  Final energy =     -71.52569980 eV
  Final Gnorm  =       0.00032067

  Components of energy : 

--------------------------------------------------------------------------------
  Interatomic potentials     =          10.00453934 eV
  Monopole - monopole (real) =         -18.24137196 eV
  Monopole - monopole (recip)=         -63.28886718 eV
  Monopole - monopole (total)=         -81.53023915 eV
--------------------------------------------------------------------------------
  Total lattice energy       =         -71.52569980 eV
--------------------------------------------------------------------------------
  Total lattice energy       =           -6901.1367 kJ/(mole unit cells)
--------------------------------------------------------------------------------

  Final asymmetric unit coordinates :

--------------------------------------------------------------------------------
   No.  Atomic        x           y           z         Radius
        Label       (Frac)      (Frac)      (Frac)       (Angs) 
--------------------------------------------------------------------------------
     1  K     c     0.000000    0.000000    0.000000    0.000000
     2  Zn    c     0.000000    0.500000    0.000000    0.000000
     3  F     c     0.000000    0.500000    0.500000    0.000000
     4  F     c     0.214318    0.714318    0.000000    0.000000
     5  F     s     0.000000    0.500000    0.500000    0.000000
     6  F     s     0.211154    0.711154    0.000000    0.000000
--------------------------------------------------------------------------------

  Final Cartesian lattice vectors (Angstroms) :

        6.808423    0.000000    0.000000
        0.000000    6.808423    0.000000
        0.000000    0.000000    3.895259


  Final cell parameters and derivatives :

--------------------------------------------------------------------------------
       a            6.808423 Angstrom     dE/de1(xx)     0.000087 eV/strain
       b            6.808423 Angstrom     dE/de2(yy)     0.000000 eV/strain
       c            3.895259 Angstrom     dE/de3(zz)    -0.000089 eV/strain
       alpha       90.000000 Degrees      dE/de4(yz)     0.000000 eV/strain
       beta        90.000000 Degrees      dE/de5(xz)     0.000000 eV/strain
       gamma       90.000000 Degrees      dE/de6(xy)     0.000000 eV/strain
--------------------------------------------------------------------------------

  Primitive cell volume =           180.563230 Angs**3

  Density of cell =      2.970314 g/cm**3

  Non-primitive cell volume =           180.563230 Angs**3


  Final internal derivatives :

--------------------------------------------------------------------------------
   No.  Atomic          a             b             c           Radius
        Label          (eV)          (eV)          (eV)        (eV/Angs)
--------------------------------------------------------------------------------
      1 K     c       0.000000      0.000000      0.000000      0.000000
      2 Zn    c       0.000000      0.000000      0.000000      0.000000
      3 F     c       0.000000      0.000000      0.000000      0.000000
      4 F     c      -0.000699      0.000000      0.000000      0.000000
      5 F     s       0.000000      0.000000      0.000000      0.000000
      6 F     s       0.001068      0.000000      0.000000      0.000000
--------------------------------------------------------------------------------
  Maximum abs         0.001068      0.000000      0.000000      0.000000
--------------------------------------------------------------------------------


  Born effective charge tensors : 

-------------------------------------------------------------------------------
  Atom             x           y             z
-------------------------------------------------------------------------------
   1 K     x       0.9202     -0.0022      0.0000
           y       0.0022      0.9202      0.0000
           z       0.0000      0.0000      1.0881
-------------------------------------------------------------------------------
   2 Zn    x       1.6933     -0.1760      0.0000
           y      -0.1760      1.6933      0.0000
           z       0.0000      0.0000      1.3595
-------------------------------------------------------------------------------
   3 F     x      -0.8730      0.0094      0.0000
           y       0.0094     -0.8730      0.0000
           z       0.0000      0.0000     -0.7236
-------------------------------------------------------------------------------
   4 F     x      -0.8702     -0.1827      0.0000
           y      -0.1827     -0.8702      0.0000
           z       0.0000      0.0000     -0.8620
-------------------------------------------------------------------------------




  Elastic Constant Matrix: (Units=GPa)

-------------------------------------------------------------------------------
  Indices      1         2         3         4         5         6    
-------------------------------------------------------------------------------
       1     86.1357   19.8318   -3.1662    0.0000    0.0000    0.0000
       2     19.8318   86.1357   -3.1662    0.0000    0.0000    0.0000
       3     -3.1662   -3.1662  126.1283    0.0000    0.0000    0.0000
       4      0.0000    0.0000    0.0000    2.8408    0.0000    0.0000
       5      0.0000    0.0000    0.0000    0.0000    2.8408    0.0000
       6      0.0000    0.0000    0.0000    0.0000    0.0000   20.7046
-------------------------------------------------------------------------------


  Elastic Compliance Matrix: (Units=1/GPa)

-------------------------------------------------------------------------------
  Indices      1         2         3         4         5         6    
-------------------------------------------------------------------------------
       1    0.012267 -0.002816  0.000237  0.000000  0.000000  0.000000
       2   -0.002816  0.012267  0.000237  0.000000  0.000000  0.000000
       3    0.000237  0.000237  0.007940  0.000000  0.000000  0.000000
       4    0.000000  0.000000  0.000000  0.352018  0.000000  0.000000
       5    0.000000  0.000000  0.000000  0.000000  0.352018  0.000000
       6    0.000000  0.000000  0.000000  0.000000  0.000000  0.048298
-------------------------------------------------------------------------------

  Mechanical properties :

-------------------------------------------------------------------------------
  Convention :                    Reuss         Voigt         Hill
-------------------------------------------------------------------------------
  Bulk  Modulus (GPa)     =      35.98231      36.15536      36.06884
  Shear Modulus (GPa)     =       6.25975      24.27060      15.26517
-------------------------------------------------------------------------------
  Velocity S-wave (km/s)  =       1.45170       2.85851       2.26699
  Velocity P-wave (km/s)  =       3.86315       4.80281       4.35838
-------------------------------------------------------------------------------
  Compressibility (1/GPa) =    0.02779143
-------------------------------------------------------------------------------
  Stress axis :                     x             y             z
-------------------------------------------------------------------------------
  Youngs Moduli (GPa)     =      81.52254      81.52254     125.93909
-------------------------------------------------------------------------------
  Poissons Ratio (x)      =                     0.22953      -0.02988
  Poissons Ratio (y)      =       0.22953                    -0.02988
  Poissons Ratio (z)      =      -0.01934      -0.01934
-------------------------------------------------------------------------------


  Piezoelectric Strain Matrix: (Units=C/m**2)

-------------------------------------------------------------------------------
  Indices      1         2         3         4         5         6    
-------------------------------------------------------------------------------
       x     0.00000   0.00000   0.00000   0.00000   0.00000   0.00000
       y     0.00000   0.00000   0.00000   0.00000   0.00000   0.00000
       z     0.00000   0.00000   0.00000   0.00000   0.00000   0.00000
-------------------------------------------------------------------------------


  Piezoelectric Stress Matrix: (Units=10**-11 C/N)

-------------------------------------------------------------------------------
  Indices      1         2         3         4         5         6    
-------------------------------------------------------------------------------
       x     0.00000   0.00000   0.00000   0.00000   0.00000   0.00000
       y     0.00000   0.00000   0.00000   0.00000   0.00000   0.00000
       z     0.00000   0.00000   0.00000   0.00000   0.00000   0.00000
-------------------------------------------------------------------------------


  Static dielectric constant tensor : 

-------------------------------------------------------------------------------
              x         y         z
-------------------------------------------------------------------------------
       x     1.77583   0.00000   0.00000
       y     0.00000   1.77583   0.00000
       z     0.00000   0.00000   0.90236
--------------------------------------------------------------------------------

  High frequency dielectric constant tensor : 

-------------------------------------------------------------------------------
              x         y         z
-------------------------------------------------------------------------------
       x     1.44397   0.00000   0.00000
       y     0.00000   1.44397   0.00000
       z     0.00000   0.00000   1.42813
-------------------------------------------------------------------------------

  Static refractive indices : 

-------------------------------------------------------------------------------
    1 =    0.94993      2 =    1.33260      3 =    1.33260
-------------------------------------------------------------------------------

  High frequency refractive indices : 

-------------------------------------------------------------------------------
    1 =    1.19505      2 =    1.20165      3 =    1.20165
-------------------------------------------------------------------------------


  Time to end of optimisation =       0.0427 seconds


  Peak dynamic memory used =       0.59 MB 


  Timing analysis for GULP :

--------------------------------------------------------------------------------
  Task / Subroutine                                          Time (Seconds)
--------------------------------------------------------------------------------
  Calculation of reciprocal space energy and derivatives          0.0009
  Calculation of reciprocal space energy using symmetry           0.0034
  Calculation of real space energy and derivatives                0.0037
  Calculation of real space energy using symmetry                 0.0309
  Symmetry generation of equivalent positions                     0.0004
--------------------------------------------------------------------------------
  Total CPU time                                                  0.0428
--------------------------------------------------------------------------------


  CIF file written as perov.cif                                               


  Job Finished at 12:49.36 22nd February   2017                               

