********************************************************************************
*                       GENERAL UTILITY LATTICE PROGRAM                        *
*                                 Julian Gale                                  *
*                      Nanochemistry Research Institute                        *
*                           Department of Chemistry                            *
*                    Curtin University, Western Australia                      *
********************************************************************************
* Version = 4.3.2 * Last modified =  3rd March 2015                            *
********************************************************************************
*  optimise     - perform optimisation run                                     *
*  conp         - constant pressure calculation                                *
*  property     - calculate properties for final geometry                      *
********************************************************************************

  Job Started  at 12:49.36 22nd February   2017                               

  Number of CPUs =     1


  Total number of configurations input =   1

********************************************************************************
*  Input for Configuration =   1                                               *
********************************************************************************

  Formula = K2Zn2F6                                                     

  Number of irreducible atoms/shells =       6


  Total number atoms/shells =      16

  Dimensionality = 3               :  Bulk   


  Symmetry :

  Crystal family                   :  Tetragonal  
  Crystal class  (Groth - 1921)    :  Ditetragonal Dipyramidal             

  Space group (centrosymmetric)    :  P 4/M B M       

  Patterson group                  :  P 4/m m m

  Cartesian lattice vectors (Angstroms) :

        4.200000    0.000000    0.000000
        0.000000    4.200000    0.000000
        0.000000    0.000000    4.200000

  Cell parameters (Angstroms/Degrees):

  a =       4.2000    alpha =  90.0000
  b =       4.2000    beta  =  90.0000
  c =       4.2000    gamma =  90.0000

  Initial cell volume =          74.088000 Angs**3

  Temperature of configuration =  0.000     K 

  Pressure of configuration =         0.000 GPa 

  Fractional coordinates of asymmetric unit :

--------------------------------------------------------------------------------
   No.  Atomic       x           y          z         Charge      Occupancy
        Label      (Frac)      (Frac)     (Frac)        (e)         (Frac)  
--------------------------------------------------------------------------------
      1 K     c    0.000000    0.000000    0.000000     1.20000    1.000000    
      2 Zn    c    0.000000    0.500000    0.000000     1.60000    1.000000    
      3 F     c    0.000000    0.500000    0.500000     0.37800    1.000000    
      4 F     c    0.227100 *  0.727100    0.000000     0.37800    1.000000    
      5 F     s    0.000000    0.500000    0.500000    -1.31133    1.000000    
      6 F     s    0.227100 *  0.727100    0.000000    -1.31133    1.000000    
--------------------------------------------------------------------------------


  Constraints : 

--------------------------------------------------------------------------------
  Constraint no.      Unconstrained     Constrained    Coefficient    Offset
                         Variable         Variable
--------------------------------------------------------------------------------
           1              Strain 1        Strain 2       1.00000      0.0000
           2                 4 x             4 y         1.00000      0.5000
           3                 6 x             6 y         1.00000      0.5000
--------------------------------------------------------------------------------


********************************************************************************
*  General input information                                                   *
********************************************************************************

  Species output for all configurations : 

--------------------------------------------------------------------------------
  Species    Type    Atomic    Atomic    Charge       Radii (Angs)     Library
                     Number     Mass       (e)     Cova   Ionic  VDW   Symbol
--------------------------------------------------------------------------------
    K        Core       19      39.10   1.200000   1.330  0.000  2.800          
    Zn       Core       30      65.39   1.600000   1.450  0.000  2.160          
    F        Core        9      19.00   0.378000   0.710  0.000  1.300          
    F        Shell       9       0.00  -1.311333   0.710  0.000  1.300          
--------------------------------------------------------------------------------


  Lattice summation method               =    Ewald          (3-D)
                                         =    Parry          (2-D)
                                         =    Saunders et al (1-D)
  Accuracy factor for lattice sums       =   12.000


  Time limit = Infinity

  Maximum range for interatomic potentials =    100000.000000 Angstroms

  General interatomic potentials :

--------------------------------------------------------------------------------
Atom  Types   Potential         A         B         C         D     Cutoffs(Ang)
  1     2                                                            Min    Max 
--------------------------------------------------------------------------------
K    c K    c Buckingham    0.219E+04 0.192      0.00      0.00     0.000 10.000
Zn   c F    s Buckingham    0.148E+04 0.266      0.00      0.00     0.000 10.000
F    s F    s Buckingham     912.     0.271      13.8      0.00     0.000 10.000
K    c F    s Buckingham    0.352E+04 0.267      0.00      0.00     0.000 10.000
F    c F    s Spring (c-s)   22.0      0.00      0.00      0.00     0.000  0.800
--------------------------------------------------------------------------------

********************************************************************************
*  Output for configuration   1                                                *
********************************************************************************


  Components of energy : 

--------------------------------------------------------------------------------
  Interatomic potentials     =         162.45946484 eV
  Monopole - monopole (real) =         -38.73595296 eV
  Monopole - monopole (recip)=         -54.96350008 eV
  Monopole - monopole (total)=         -93.69945305 eV
--------------------------------------------------------------------------------
  Total lattice energy       =          68.76001180 eV
--------------------------------------------------------------------------------
  Total lattice energy       =            6634.2900 kJ/(mole unit cells)
--------------------------------------------------------------------------------


  Number of variables =        4

  Maximum number of calculations  =          1000
  Maximum Hessian update interval =            10
  Maximum step size               =   1.000000000
  Maximum parameter tolerance     =   0.000010000
  Maximum function  tolerance     =   0.000010000
  Maximum gradient  tolerance     =   0.001000000
  Maximum gradient  component     =   0.010000000

  Symmetry constrained optimisation

  Symmetry used for second derivatives

  Cell parameters to be optimised using strains

  Newton-Raphson optimiser to be used

  BFGS hessian update to be used

  Start of bulk optimisation :

  Cycle:      0 Energy:        68.760012  Gnorm:    212.711294  CPU:    0.005
  ** Hessian calculated **
  Cycle:      1 Energy:       -57.779829  Gnorm:     22.781668  CPU:    0.012
  ** Hessian calculated **
  Cycle:      2 Energy:       -58.451803  Gnorm:      6.392203  CPU:    0.018
  Cycle:      3 Energy:       -58.529140  Gnorm:      0.059957  CPU:    0.021
  Cycle:      4 Energy:       -58.529184  Gnorm:      0.016008  CPU:    0.024
  Cycle:      5 Energy:       -58.529271  Gnorm:      0.024155  CPU:    0.029
  Cycle:      6 Energy:       -58.529383  Gnorm:      0.034370  CPU:    0.033
  Cycle:      7 Energy:       -58.529457  Gnorm:      0.026008  CPU:    0.037
  Cycle:      8 Energy:       -58.529464  Gnorm:      0.002069  CPU:    0.040


  **** Optimisation achieved ****


  Final energy =     -58.52946447 eV
  Final Gnorm  =       0.00087199

  Components of energy : 

--------------------------------------------------------------------------------
  Interatomic potentials     =           7.61178865 eV
  Monopole - monopole (real) =         -12.04583439 eV
  Monopole - monopole (recip)=         -54.09541872 eV
  Monopole - monopole (total)=         -66.14125311 eV
--------------------------------------------------------------------------------
  Total lattice energy       =         -58.52946447 eV
--------------------------------------------------------------------------------
  Total lattice energy       =           -5647.1986 kJ/(mole unit cells)
--------------------------------------------------------------------------------

  Final asymmetric unit coordinates :

--------------------------------------------------------------------------------
   No.  Atomic        x           y           z         Radius
        Label       (Frac)      (Frac)      (Frac)       (Angs) 
--------------------------------------------------------------------------------
     1  K     c     0.000000    0.000000    0.000000    0.000000
     2  Zn    c     0.000000    0.500000    0.000000    0.000000
     3  F     c     0.000000    0.500000    0.500000    0.000000
     4  F     c     0.241776    0.741776    0.000000    0.000000
     5  F     s     0.000000    0.500000    0.500000    0.000000
     6  F     s     0.241190    0.741190    0.000000    0.000000
--------------------------------------------------------------------------------

  Final Cartesian lattice vectors (Angstroms) :

        6.812335    0.000000    0.000000
        0.000000    6.812335    0.000000
        0.000000    0.000000    4.058957


  Final cell parameters and derivatives :

--------------------------------------------------------------------------------
       a            6.812335 Angstrom     dE/de1(xx)     0.000749 eV/strain
       b            6.812335 Angstrom     dE/de2(yy)     0.000000 eV/strain
       c            4.058957 Angstrom     dE/de3(zz)     0.001525 eV/strain
       alpha       90.000000 Degrees      dE/de4(yz)     0.000000 eV/strain
       beta        90.000000 Degrees      dE/de5(xz)     0.000000 eV/strain
       gamma       90.000000 Degrees      dE/de6(xy)     0.000000 eV/strain
--------------------------------------------------------------------------------

  Primitive cell volume =           188.367685 Angs**3

  Density of cell =      2.847248 g/cm**3

  Non-primitive cell volume =           188.367685 Angs**3


  Final internal derivatives :

--------------------------------------------------------------------------------
   No.  Atomic          a             b             c           Radius
        Label          (eV)          (eV)          (eV)        (eV/Angs)
--------------------------------------------------------------------------------
      1 K     c       0.000000      0.000000      0.000000      0.000000
      2 Zn    c       0.000000      0.000000      0.000000      0.000000
      3 F     c       0.000000      0.000000      0.000000      0.000000
      4 F     c      -0.001778      0.000000      0.000000      0.000000
      5 F     s       0.000000      0.000000      0.000000      0.000000
      6 F     s       0.002473      0.000000      0.000000      0.000000
--------------------------------------------------------------------------------
  Maximum abs         0.002473      0.000000      0.000000      0.000000
--------------------------------------------------------------------------------


  Born effective charge tensors : 

-------------------------------------------------------------------------------
  Atom             x           y             z
-------------------------------------------------------------------------------
   1 K     x       0.9755     -0.0015      0.0000
           y       0.0015      0.9755      0.0000
           z       0.0000      0.0000      1.1804
-------------------------------------------------------------------------------
   2 Zn    x       1.6179     -0.0345      0.0000
           y      -0.0345      1.6179      0.0000
           z       0.0000      0.0000      1.1257
-------------------------------------------------------------------------------
   3 F     x      -0.8717      0.0023      0.0000
           y       0.0023     -0.8717      0.0000
           z       0.0000      0.0000     -0.6958
-------------------------------------------------------------------------------
   4 F     x      -0.8608     -0.2458      0.0000
           y      -0.2458     -0.8608      0.0000
           z       0.0000      0.0000     -0.8052
-------------------------------------------------------------------------------




  Elastic Constant Matrix: (Units=GPa)

-------------------------------------------------------------------------------
  Indices      1         2         3         4         5         6    
-------------------------------------------------------------------------------
       1     81.8256   24.4906   -2.7328    0.0000    0.0000    0.0000
       2     24.4906   81.8256   -2.7328    0.0000    0.0000    0.0000
       3     -2.7328   -2.7328   99.0761    0.0000    0.0000    0.0000
       4      0.0000    0.0000    0.0000    3.4095    0.0000    0.0000
       5      0.0000    0.0000    0.0000    0.0000    3.4095    0.0000
       6      0.0000    0.0000    0.0000    0.0000    0.0000   35.2312
-------------------------------------------------------------------------------


  Elastic Compliance Matrix: (Units=1/GPa)

-------------------------------------------------------------------------------
  Indices      1         2         3         4         5         6    
-------------------------------------------------------------------------------
       1    0.013430 -0.004011  0.000260  0.000000  0.000000  0.000000
       2   -0.004011  0.013430  0.000260  0.000000  0.000000  0.000000
       3    0.000260  0.000260  0.010108  0.000000  0.000000  0.000000
       4    0.000000  0.000000  0.000000  0.293301  0.000000  0.000000
       5    0.000000  0.000000  0.000000  0.000000  0.293301  0.000000
       6    0.000000  0.000000  0.000000  0.000000  0.000000  0.028384
-------------------------------------------------------------------------------

  Mechanical properties :

-------------------------------------------------------------------------------
  Convention :                    Reuss         Voigt         Hill
-------------------------------------------------------------------------------
  Bulk  Modulus (GPa)     =      33.34963      33.41970      33.38466
  Shear Modulus (GPa)     =       7.47459      24.65685      16.06572
-------------------------------------------------------------------------------
  Velocity S-wave (km/s)  =       1.62025       2.94277       2.37540
  Velocity P-wave (km/s)  =       3.90041       4.82536       4.38733
-------------------------------------------------------------------------------
  Compressibility (1/GPa) =    0.02998534
-------------------------------------------------------------------------------
  Stress axis :                     x             y             z
-------------------------------------------------------------------------------
  Youngs Moduli (GPa)     =      74.45851      74.45851      98.93557
-------------------------------------------------------------------------------
  Poissons Ratio (x)      =                     0.29866      -0.02570
  Poissons Ratio (y)      =       0.29866                    -0.02570
  Poissons Ratio (z)      =      -0.01934      -0.01934
-------------------------------------------------------------------------------


  Piezoelectric Strain Matrix: (Units=C/m**2)

-------------------------------------------------------------------------------
  Indices      1         2         3         4         5         6    
-------------------------------------------------------------------------------
       x     0.00000   0.00000   0.00000   0.00000   0.00000   0.00000
       y     0.00000   0.00000   0.00000   0.00000   0.00000   0.00000
       z     0.00000   0.00000   0.00000   0.00000   0.00000   0.00000
-------------------------------------------------------------------------------


  Piezoelectric Stress Matrix: (Units=10**-11 C/N)

-------------------------------------------------------------------------------
  Indices      1         2         3         4         5         6    
-------------------------------------------------------------------------------
       x     0.00000   0.00000   0.00000   0.00000   0.00000   0.00000
       y     0.00000   0.00000   0.00000   0.00000   0.00000   0.00000
       z     0.00000   0.00000   0.00000   0.00000   0.00000   0.00000
-------------------------------------------------------------------------------


  Static dielectric constant tensor : 

-------------------------------------------------------------------------------
              x         y         z
-------------------------------------------------------------------------------
       x    -5.72965   0.00000   0.00000
       y     0.00000  -5.72965   0.00000
       z     0.00000   0.00000   0.67629
--------------------------------------------------------------------------------

  High frequency dielectric constant tensor : 

-------------------------------------------------------------------------------
              x         y         z
-------------------------------------------------------------------------------
       x     1.44647   0.00000   0.00000
       y     0.00000   1.44647   0.00000
       z     0.00000   0.00000   1.41205
-------------------------------------------------------------------------------

  Static refractive indices : 

-------------------------------------------------------------------------------
    1 =   -2.39367      2 =   -2.39367      3 =    0.82237
-------------------------------------------------------------------------------

  High frequency refractive indices : 

-------------------------------------------------------------------------------
    1 =    1.18830      2 =    1.20269      3 =    1.20269
-------------------------------------------------------------------------------


  Time to end of optimisation =       0.0487 seconds


  Peak dynamic memory used =       0.59 MB 


  Timing analysis for GULP :

--------------------------------------------------------------------------------
  Task / Subroutine                                          Time (Seconds)
--------------------------------------------------------------------------------
  Calculation of reciprocal space energy and derivatives          0.0009
  Calculation of reciprocal space energy using symmetry           0.0038
  Calculation of real space energy and derivatives                0.0037
  Calculation of real space energy using symmetry                 0.0365
  Symmetry generation of equivalent positions                     0.0004
--------------------------------------------------------------------------------
  Total CPU time                                                  0.0487
--------------------------------------------------------------------------------


  CIF file written as perov.cif                                               


  Job Finished at 12:49.36 22nd February   2017                               

