********************************************************************************
*                       GENERAL UTILITY LATTICE PROGRAM                        *
*                                 Julian Gale                                  *
*                      Nanochemistry Research Institute                        *
*                           Department of Chemistry                            *
*                    Curtin University, Western Australia                      *
********************************************************************************
* Version = 4.3.2 * Last modified =  3rd March 2015                            *
********************************************************************************
*  optimise     - perform optimisation run                                     *
*  conp         - constant pressure calculation                                *
*  property     - calculate properties for final geometry                      *
********************************************************************************

  Job Started  at 12:49.32 22nd February   2017                               

  Number of CPUs =     1


  Total number of configurations input =   1

********************************************************************************
*  Input for Configuration =   1                                               *
********************************************************************************

  Formula = K2Zn2F6                                                     

  Number of irreducible atoms/shells =       6


  Total number atoms/shells =      16

  Dimensionality = 3               :  Bulk   


  Symmetry :

  Crystal family                   :  Tetragonal  
  Crystal class  (Groth - 1921)    :  Ditetragonal Dipyramidal             

  Space group (centrosymmetric)    :  P 4/M B M       

  Patterson group                  :  P 4/m m m

  Cartesian lattice vectors (Angstroms) :

        4.200000    0.000000    0.000000
        0.000000    4.200000    0.000000
        0.000000    0.000000    4.200000

  Cell parameters (Angstroms/Degrees):

  a =       4.2000    alpha =  90.0000
  b =       4.2000    beta  =  90.0000
  c =       4.2000    gamma =  90.0000

  Initial cell volume =          74.088000 Angs**3

  Temperature of configuration =  0.000     K 

  Pressure of configuration =         0.000 GPa 

  Fractional coordinates of asymmetric unit :

--------------------------------------------------------------------------------
   No.  Atomic       x           y          z         Charge      Occupancy
        Label      (Frac)      (Frac)     (Frac)        (e)         (Frac)  
--------------------------------------------------------------------------------
      1 K     c    0.000000    0.000000    0.000000     0.60000    1.000000    
      2 Zn    c    0.000000    0.500000    0.000000     2.10000    1.000000    
      3 F     c    0.000000    0.500000    0.500000     0.37800    1.000000    
      4 F     c    0.227100 *  0.727100    0.000000     0.37800    1.000000    
      5 F     s    0.000000    0.500000    0.500000    -1.27800    1.000000    
      6 F     s    0.227100 *  0.727100    0.000000    -1.27800    1.000000    
--------------------------------------------------------------------------------


  Constraints : 

--------------------------------------------------------------------------------
  Constraint no.      Unconstrained     Constrained    Coefficient    Offset
                         Variable         Variable
--------------------------------------------------------------------------------
           1              Strain 1        Strain 2       1.00000      0.0000
           2                 4 x             4 y         1.00000      0.5000
           3                 6 x             6 y         1.00000      0.5000
--------------------------------------------------------------------------------


********************************************************************************
*  General input information                                                   *
********************************************************************************

  Species output for all configurations : 

--------------------------------------------------------------------------------
  Species    Type    Atomic    Atomic    Charge       Radii (Angs)     Library
                     Number     Mass       (e)     Cova   Ionic  VDW   Symbol
--------------------------------------------------------------------------------
    K        Core       19      39.10   0.600000   1.330  0.000  2.800          
    Zn       Core       30      65.39   2.100000   1.450  0.000  2.160          
    F        Core        9      19.00   0.378000   0.710  0.000  1.300          
    F        Shell       9       0.00  -1.278000   0.710  0.000  1.300          
--------------------------------------------------------------------------------


  Lattice summation method               =    Ewald          (3-D)
                                         =    Parry          (2-D)
                                         =    Saunders et al (1-D)
  Accuracy factor for lattice sums       =   12.000


  Time limit = Infinity

  Maximum range for interatomic potentials =    100000.000000 Angstroms

  General interatomic potentials :

--------------------------------------------------------------------------------
Atom  Types   Potential         A         B         C         D     Cutoffs(Ang)
  1     2                                                            Min    Max 
--------------------------------------------------------------------------------
K    c K    c Buckingham    0.219E+04 0.192      0.00      0.00     0.000 10.000
Zn   c F    s Buckingham    0.148E+04 0.266      0.00      0.00     0.000 10.000
F    s F    s Buckingham     912.     0.271      13.8      0.00     0.000 10.000
K    c F    s Buckingham    0.352E+04 0.267      0.00      0.00     0.000 10.000
F    c F    s Spring (c-s)   20.9      0.00      0.00      0.00     0.000  0.800
--------------------------------------------------------------------------------

********************************************************************************
*  Output for configuration   1                                                *
********************************************************************************


  Components of energy : 

--------------------------------------------------------------------------------
  Interatomic potentials     =         162.45946484 eV
  Monopole - monopole (real) =         -40.00707547 eV
  Monopole - monopole (recip)=         -60.12130075 eV
  Monopole - monopole (total)=        -100.12837621 eV
--------------------------------------------------------------------------------
  Total lattice energy       =          62.33108863 eV
--------------------------------------------------------------------------------
  Total lattice energy       =            6013.9972 kJ/(mole unit cells)
--------------------------------------------------------------------------------


  Number of variables =        4

  Maximum number of calculations  =          1000
  Maximum Hessian update interval =            10
  Maximum step size               =   1.000000000
  Maximum parameter tolerance     =   0.000010000
  Maximum function  tolerance     =   0.000010000
  Maximum gradient  tolerance     =   0.001000000
  Maximum gradient  component     =   0.010000000

  Symmetry constrained optimisation

  Symmetry used for second derivatives

  Cell parameters to be optimised using strains

  Newton-Raphson optimiser to be used

  BFGS hessian update to be used

  Start of bulk optimisation :

  Cycle:      0 Energy:        62.331089  Gnorm:    208.929903  CPU:    0.005
  ** Hessian calculated **
  Cycle:      1 Energy:       -63.215714  Gnorm:     33.376219  CPU:    0.012
  ** Hessian calculated **
  Cycle:      2 Energy:       -64.488116  Gnorm:      9.570729  CPU:    0.018
  ** Hessian calculated **
  Cycle:      3 Energy:       -64.824217  Gnorm:     23.731895  CPU:    0.026
  Cycle:      4 Energy:       -64.851692  Gnorm:     28.875676  CPU:    0.029
  Cycle:      5 Energy:       -64.857906  Gnorm:     28.648889  CPU:    0.033
  ** Hessian calculated **
  Cycle:      6 Energy:       -65.497094  Gnorm:     10.623266  CPU:    0.038
  Cycle:      7 Energy:       -65.598063  Gnorm:      3.487229  CPU:    0.041
  Cycle:      8 Energy:       -65.621668  Gnorm:      1.704086  CPU:    0.045
  Cycle:      9 Energy:       -65.630828  Gnorm:      0.328432  CPU:    0.048
  Cycle:     10 Energy:       -65.631498  Gnorm:      0.130989  CPU:    0.052
  Cycle:     11 Energy:       -65.631567  Gnorm:      0.120709  CPU:    0.055
  Cycle:     12 Energy:       -65.631610  Gnorm:      0.061731  CPU:    0.058
  Cycle:     13 Energy:       -65.631628  Gnorm:      0.020828  CPU:    0.061
  Cycle:     14 Energy:       -65.631630  Gnorm:      0.018976  CPU:    0.065
  Cycle:     15 Energy:       -65.631631  Gnorm:      0.011122  CPU:    0.068
  ** Hessian calculated **


  **** Optimisation achieved ****


  Final energy =     -65.63163171 eV
  Final Gnorm  =       0.00087758

  Components of energy : 

--------------------------------------------------------------------------------
  Interatomic potentials     =          10.00445751 eV
  Monopole - monopole (real) =         -20.01511185 eV
  Monopole - monopole (recip)=         -55.62097738 eV
  Monopole - monopole (total)=         -75.63608923 eV
--------------------------------------------------------------------------------
  Total lattice energy       =         -65.63163171 eV
--------------------------------------------------------------------------------
  Total lattice energy       =           -6332.4492 kJ/(mole unit cells)
--------------------------------------------------------------------------------

  Final asymmetric unit coordinates :

--------------------------------------------------------------------------------
   No.  Atomic        x           y           z         Radius
        Label       (Frac)      (Frac)      (Frac)       (Angs) 
--------------------------------------------------------------------------------
     1  K     c     0.000000    0.000000    0.000000    0.000000
     2  Zn    c     0.000000    0.500000    0.000000    0.000000
     3  F     c     0.000000    0.500000    0.500000    0.000000
     4  F     c     0.190639    0.690639    0.000000    0.000000
     5  F     s     0.000000    0.500000    0.500000    0.000000
     6  F     s     0.183821    0.683821    0.000000    0.000000
--------------------------------------------------------------------------------

  Final Cartesian lattice vectors (Angstroms) :

        7.316316    0.000000    0.000000
        0.000000    7.316316    0.000000
        0.000000    0.000000    3.906099


  Final cell parameters and derivatives :

--------------------------------------------------------------------------------
       a            7.316316 Angstrom     dE/de1(xx)     0.002645 eV/strain
       b            7.316316 Angstrom     dE/de2(yy)     0.000000 eV/strain
       c            3.906099 Angstrom     dE/de3(zz)     0.000328 eV/strain
       alpha       90.000000 Degrees      dE/de4(yz)     0.000000 eV/strain
       beta        90.000000 Degrees      dE/de5(xz)     0.000000 eV/strain
       gamma       90.000000 Degrees      dE/de6(xy)     0.000000 eV/strain
--------------------------------------------------------------------------------

  Primitive cell volume =           209.087585 Angs**3

  Density of cell =      2.565095 g/cm**3

  Non-primitive cell volume =           209.087585 Angs**3


  Final internal derivatives :

--------------------------------------------------------------------------------
   No.  Atomic          a             b             c           Radius
        Label          (eV)          (eV)          (eV)        (eV/Angs)
--------------------------------------------------------------------------------
      1 K     c       0.000000      0.000000      0.000000      0.000000
      2 Zn    c       0.000000      0.000000      0.000000      0.000000
      3 F     c       0.000000      0.000000      0.000000      0.000000
      4 F     c       0.000746      0.000000      0.000000      0.000000
      5 F     s       0.000000      0.000000      0.000000      0.000000
      6 F     s       0.002160      0.000000      0.000000      0.000000
--------------------------------------------------------------------------------
  Maximum abs         0.002160      0.000000      0.000000      0.000000
--------------------------------------------------------------------------------


  Born effective charge tensors : 

-------------------------------------------------------------------------------
  Atom             x           y             z
-------------------------------------------------------------------------------
   1 K     x       0.5190      0.0004      0.0000
           y      -0.0004      0.5190      0.0000
           z       0.0000      0.0000      0.6019
-------------------------------------------------------------------------------
   2 Zn    x       1.5527     -0.2910      0.0000
           y      -0.2910      1.5527      0.0000
           z       0.0000      0.0000      1.6021
-------------------------------------------------------------------------------
   3 F     x      -0.6881      0.0094      0.0000
           y       0.0094     -0.6881      0.0000
           z       0.0000      0.0000     -0.6314
-------------------------------------------------------------------------------
   4 F     x      -0.6918     -0.0306      0.0000
           y      -0.0306     -0.6918      0.0000
           z       0.0000      0.0000     -0.7863
-------------------------------------------------------------------------------




  Elastic Constant Matrix: (Units=GPa)

-------------------------------------------------------------------------------
  Indices      1         2         3         4         5         6    
-------------------------------------------------------------------------------
       1     39.2374    4.3694   -1.7551    0.0000    0.0000    0.0000
       2      4.3694   39.2374   -1.7551    0.0000    0.0000    0.0000
       3     -1.7551   -1.7551  108.4250    0.0000    0.0000    0.0000
       4      0.0000    0.0000    0.0000    0.7422    0.0000    0.0000
       5      0.0000    0.0000    0.0000    0.0000    0.7422    0.0000
       6      0.0000    0.0000    0.0000    0.0000    0.0000    1.2024
-------------------------------------------------------------------------------


  Elastic Compliance Matrix: (Units=1/GPa)

-------------------------------------------------------------------------------
  Indices      1         2         3         4         5         6    
-------------------------------------------------------------------------------
       1    0.025821 -0.002859  0.000372  0.000000  0.000000  0.000000
       2   -0.002859  0.025821  0.000372  0.000000  0.000000  0.000000
       3    0.000372  0.000372  0.009235  0.000000  0.000000  0.000000
       4    0.000000  0.000000  0.000000  1.347368  0.000000  0.000000
       5    0.000000  0.000000  0.000000  0.000000  1.347368  0.000000
       6    0.000000  0.000000  0.000000  0.000000  0.000000  0.831703
-------------------------------------------------------------------------------

  Mechanical properties :

-------------------------------------------------------------------------------
  Convention :                    Reuss         Voigt         Hill
-------------------------------------------------------------------------------
  Bulk  Modulus (GPa)     =      17.65347      20.95756      19.30551
  Shear Modulus (GPa)     =       1.38488      12.94006       7.16247
-------------------------------------------------------------------------------
  Velocity S-wave (km/s)  =       0.73477       2.24603       1.67101
  Velocity P-wave (km/s)  =       2.75718       3.85960       3.35399
-------------------------------------------------------------------------------
  Compressibility (1/GPa) =    0.05664608
-------------------------------------------------------------------------------
  Stress axis :                     x             y             z
-------------------------------------------------------------------------------
  Youngs Moduli (GPa)     =      38.72840      38.72840     108.28370
-------------------------------------------------------------------------------
  Poissons Ratio (x)      =                     0.11071      -0.04025
  Poissons Ratio (y)      =       0.11071                    -0.04025
  Poissons Ratio (z)      =      -0.01440      -0.01440
-------------------------------------------------------------------------------


  Piezoelectric Strain Matrix: (Units=C/m**2)

-------------------------------------------------------------------------------
  Indices      1         2         3         4         5         6    
-------------------------------------------------------------------------------
       x     0.00000   0.00000   0.00000   0.00000   0.00000   0.00000
       y     0.00000   0.00000   0.00000   0.00000   0.00000   0.00000
       z     0.00000   0.00000   0.00000   0.00000   0.00000   0.00000
-------------------------------------------------------------------------------


  Piezoelectric Stress Matrix: (Units=10**-11 C/N)

-------------------------------------------------------------------------------
  Indices      1         2         3         4         5         6    
-------------------------------------------------------------------------------
       x     0.00000   0.00000   0.00000   0.00000   0.00000   0.00000
       y     0.00000   0.00000   0.00000   0.00000   0.00000   0.00000
       z     0.00000   0.00000   0.00000   0.00000   0.00000   0.00000
-------------------------------------------------------------------------------


  Static dielectric constant tensor : 

-------------------------------------------------------------------------------
              x         y         z
-------------------------------------------------------------------------------
       x     4.83797   0.00000   0.00000
       y     0.00000   4.83797   0.00000
       z     0.00000   0.00000   1.67946
--------------------------------------------------------------------------------

  High frequency dielectric constant tensor : 

-------------------------------------------------------------------------------
              x         y         z
-------------------------------------------------------------------------------
       x     1.34999   0.00000   0.00000
       y     0.00000   1.34999   0.00000
       z     0.00000   0.00000   1.37424
-------------------------------------------------------------------------------

  Static refractive indices : 

-------------------------------------------------------------------------------
    1 =    1.29594      2 =    2.19954      3 =    2.19954
-------------------------------------------------------------------------------

  High frequency refractive indices : 

-------------------------------------------------------------------------------
    1 =    1.16189      2 =    1.16189      3 =    1.17228
-------------------------------------------------------------------------------


  Time to end of optimisation =       0.0784 seconds


  Peak dynamic memory used =       0.59 MB 


  Timing analysis for GULP :

--------------------------------------------------------------------------------
  Task / Subroutine                                          Time (Seconds)
--------------------------------------------------------------------------------
  Calculation of reciprocal space energy and derivatives          0.0010
  Calculation of reciprocal space energy using symmetry           0.0070
  Calculation of real space energy and derivatives                0.0041
  Calculation of real space energy using symmetry                 0.0621
  Symmetry generation of equivalent positions                     0.0005
--------------------------------------------------------------------------------
  Total CPU time                                                  0.0784
--------------------------------------------------------------------------------


  CIF file written as perov.cif                                               


  Job Finished at 12:49.32 22nd February   2017                               

