********************************************************************************
*                       GENERAL UTILITY LATTICE PROGRAM                        *
*                                 Julian Gale                                  *
*                      Nanochemistry Research Institute                        *
*                           Department of Chemistry                            *
*                    Curtin University, Western Australia                      *
********************************************************************************
* Version = 4.3.2 * Last modified =  3rd March 2015                            *
********************************************************************************
*  optimise     - perform optimisation run                                     *
*  conp         - constant pressure calculation                                *
*  property     - calculate properties for final geometry                      *
********************************************************************************

  Job Started  at 12:49.34 22nd February   2017                               

  Number of CPUs =     1


  Total number of configurations input =   1

********************************************************************************
*  Input for Configuration =   1                                               *
********************************************************************************

  Formula = K2Zn2F6                                                     

  Number of irreducible atoms/shells =       6


  Total number atoms/shells =      16

  Dimensionality = 3               :  Bulk   


  Symmetry :

  Crystal family                   :  Tetragonal  
  Crystal class  (Groth - 1921)    :  Ditetragonal Dipyramidal             

  Space group (centrosymmetric)    :  P 4/M B M       

  Patterson group                  :  P 4/m m m

  Cartesian lattice vectors (Angstroms) :

        4.200000    0.000000    0.000000
        0.000000    4.200000    0.000000
        0.000000    0.000000    4.200000

  Cell parameters (Angstroms/Degrees):

  a =       4.2000    alpha =  90.0000
  b =       4.2000    beta  =  90.0000
  c =       4.2000    gamma =  90.0000

  Initial cell volume =          74.088000 Angs**3

  Temperature of configuration =  0.000     K 

  Pressure of configuration =         0.000 GPa 

  Fractional coordinates of asymmetric unit :

--------------------------------------------------------------------------------
   No.  Atomic       x           y          z         Charge      Occupancy
        Label      (Frac)      (Frac)     (Frac)        (e)         (Frac)  
--------------------------------------------------------------------------------
      1 K     c    0.000000    0.000000    0.000000     0.80000    1.000000    
      2 Zn    c    0.000000    0.500000    0.000000     2.00000    1.000000    
      3 F     c    0.000000    0.500000    0.500000     0.37800    1.000000    
      4 F     c    0.227100 *  0.727100    0.000000     0.37800    1.000000    
      5 F     s    0.000000    0.500000    0.500000    -1.31133    1.000000    
      6 F     s    0.227100 *  0.727100    0.000000    -1.31133    1.000000    
--------------------------------------------------------------------------------


  Constraints : 

--------------------------------------------------------------------------------
  Constraint no.      Unconstrained     Constrained    Coefficient    Offset
                         Variable         Variable
--------------------------------------------------------------------------------
           1              Strain 1        Strain 2       1.00000      0.0000
           2                 4 x             4 y         1.00000      0.5000
           3                 6 x             6 y         1.00000      0.5000
--------------------------------------------------------------------------------


********************************************************************************
*  General input information                                                   *
********************************************************************************

  Species output for all configurations : 

--------------------------------------------------------------------------------
  Species    Type    Atomic    Atomic    Charge       Radii (Angs)     Library
                     Number     Mass       (e)     Cova   Ionic  VDW   Symbol
--------------------------------------------------------------------------------
    K        Core       19      39.10   0.800000   1.330  0.000  2.800          
    Zn       Core       30      65.39   2.000000   1.450  0.000  2.160          
    F        Core        9      19.00   0.378000   0.710  0.000  1.300          
    F        Shell       9       0.00  -1.311333   0.710  0.000  1.300          
--------------------------------------------------------------------------------


  Lattice summation method               =    Ewald          (3-D)
                                         =    Parry          (2-D)
                                         =    Saunders et al (1-D)
  Accuracy factor for lattice sums       =   12.000


  Time limit = Infinity

  Maximum range for interatomic potentials =    100000.000000 Angstroms

  General interatomic potentials :

--------------------------------------------------------------------------------
Atom  Types   Potential         A         B         C         D     Cutoffs(Ang)
  1     2                                                            Min    Max 
--------------------------------------------------------------------------------
K    c K    c Buckingham    0.219E+04 0.192      0.00      0.00     0.000 10.000
Zn   c F    s Buckingham    0.148E+04 0.266      0.00      0.00     0.000 10.000
F    s F    s Buckingham     912.     0.271      13.8      0.00     0.000 10.000
K    c F    s Buckingham    0.352E+04 0.267      0.00      0.00     0.000 10.000
F    c F    s Spring (c-s)   22.0      0.00      0.00      0.00     0.000  0.800
--------------------------------------------------------------------------------

********************************************************************************
*  Output for configuration   1                                                *
********************************************************************************


  Components of energy : 

--------------------------------------------------------------------------------
  Interatomic potentials     =         162.45946484 eV
  Monopole - monopole (real) =         -41.33222642 eV
  Monopole - monopole (recip)=         -60.47391115 eV
  Monopole - monopole (total)=        -101.80613757 eV
--------------------------------------------------------------------------------
  Total lattice energy       =          60.65332728 eV
--------------------------------------------------------------------------------
  Total lattice energy       =            5852.1189 kJ/(mole unit cells)
--------------------------------------------------------------------------------


  Number of variables =        4

  Maximum number of calculations  =          1000
  Maximum Hessian update interval =            10
  Maximum step size               =   1.000000000
  Maximum parameter tolerance     =   0.000010000
  Maximum function  tolerance     =   0.000010000
  Maximum gradient  tolerance     =   0.001000000
  Maximum gradient  component     =   0.010000000

  Symmetry constrained optimisation

  Symmetry used for second derivatives

  Cell parameters to be optimised using strains

  Newton-Raphson optimiser to be used

  BFGS hessian update to be used

  Start of bulk optimisation :

  Cycle:      0 Energy:        60.653327  Gnorm:    209.096076  CPU:    0.005
  ** Hessian calculated **
  Cycle:      1 Energy:       -64.406804  Gnorm:     31.241901  CPU:    0.012
  ** Hessian calculated **
  Cycle:      2 Energy:       -65.531272  Gnorm:     10.948979  CPU:    0.018
  ** Hessian calculated **
  Cycle:      3 Energy:       -65.636146  Gnorm:      3.665594  CPU:    0.023
  Cycle:      4 Energy:       -65.695407  Gnorm:      2.776287  CPU:    0.027
  Cycle:      5 Energy:       -65.774760  Gnorm:      2.890623  CPU:    0.031
  Cycle:      6 Energy:       -65.914958  Gnorm:      2.539487  CPU:    0.036
  Cycle:      7 Energy:       -65.976701  Gnorm:      2.487502  CPU:    0.039
  Cycle:      8 Energy:       -66.088915  Gnorm:      3.187051  CPU:    0.043
  Cycle:      9 Energy:       -66.162171  Gnorm:      2.681158  CPU:    0.047
  Cycle:     10 Energy:       -66.166185  Gnorm:      0.730257  CPU:    0.050
  Cycle:     11 Energy:       -66.166668  Gnorm:      0.104345  CPU:    0.053
  Cycle:     12 Energy:       -66.166675  Gnorm:      0.026823  CPU:    0.056
  ** Hessian calculated **


  **** Optimisation achieved ****


  Final energy =     -66.16667555 eV
  Final Gnorm  =       0.00058634

  Components of energy : 

--------------------------------------------------------------------------------
  Interatomic potentials     =           9.65928859 eV
  Monopole - monopole (real) =         -18.47533327 eV
  Monopole - monopole (recip)=         -57.35063087 eV
  Monopole - monopole (total)=         -75.82596414 eV
--------------------------------------------------------------------------------
  Total lattice energy       =         -66.16667555 eV
--------------------------------------------------------------------------------
  Total lattice energy       =           -6384.0727 kJ/(mole unit cells)
--------------------------------------------------------------------------------

  Final asymmetric unit coordinates :

--------------------------------------------------------------------------------
   No.  Atomic        x           y           z         Radius
        Label       (Frac)      (Frac)      (Frac)       (Angs) 
--------------------------------------------------------------------------------
     1  K     c     0.000000    0.000000    0.000000    0.000000
     2  Zn    c     0.000000    0.500000    0.000000    0.000000
     3  F     c     0.000000    0.500000    0.500000    0.000000
     4  F     c     0.300409    0.800409    0.000000    0.000000
     5  F     s     0.000000    0.500000    0.500000    0.000000
     6  F     s     0.305661    0.805661    0.000000    0.000000
--------------------------------------------------------------------------------

  Final Cartesian lattice vectors (Angstroms) :

        7.104351    0.000000    0.000000
        0.000000    7.104351    0.000000
        0.000000    0.000000    3.911140


  Final cell parameters and derivatives :

--------------------------------------------------------------------------------
       a            7.104351 Angstrom     dE/de1(xx)    -0.000846 eV/strain
       b            7.104351 Angstrom     dE/de2(yy)     0.000000 eV/strain
       c            3.911140 Angstrom     dE/de3(zz)    -0.000040 eV/strain
       alpha       90.000000 Degrees      dE/de4(yz)     0.000000 eV/strain
       beta        90.000000 Degrees      dE/de5(xz)     0.000000 eV/strain
       gamma       90.000000 Degrees      dE/de6(xy)     0.000000 eV/strain
--------------------------------------------------------------------------------

  Primitive cell volume =           197.402317 Angs**3

  Density of cell =      2.716936 g/cm**3

  Non-primitive cell volume =           197.402317 Angs**3


  Final internal derivatives :

--------------------------------------------------------------------------------
   No.  Atomic          a             b             c           Radius
        Label          (eV)          (eV)          (eV)        (eV/Angs)
--------------------------------------------------------------------------------
      1 K     c       0.000000      0.000000      0.000000      0.000000
      2 Zn    c       0.000000      0.000000      0.000000      0.000000
      3 F     c       0.000000      0.000000      0.000000      0.000000
      4 F     c       0.002065      0.000000      0.000000      0.000000
      5 F     s       0.000000      0.000000      0.000000      0.000000
      6 F     s      -0.000721      0.000000      0.000000      0.000000
--------------------------------------------------------------------------------
  Maximum abs         0.002065      0.000000      0.000000      0.000000
--------------------------------------------------------------------------------


  Born effective charge tensors : 

-------------------------------------------------------------------------------
  Atom             x           y             z
-------------------------------------------------------------------------------
   1 K     x       0.6873      0.0002      0.0000
           y      -0.0002      0.6873      0.0000
           z       0.0000      0.0000      0.7967
-------------------------------------------------------------------------------
   2 Zn    x       1.5907      0.2458      0.0000
           y       0.2458      1.5907      0.0000
           z       0.0000      0.0000      1.4883
-------------------------------------------------------------------------------
   3 F     x      -0.7566     -0.0096      0.0000
           y      -0.0096     -0.7566      0.0000
           z       0.0000      0.0000     -0.6617
-------------------------------------------------------------------------------
   4 F     x      -0.7607     -0.0876      0.0000
           y      -0.0876     -0.7607      0.0000
           z       0.0000      0.0000     -0.8117
-------------------------------------------------------------------------------




  Elastic Constant Matrix: (Units=GPa)

-------------------------------------------------------------------------------
  Indices      1         2         3         4         5         6    
-------------------------------------------------------------------------------
       1     55.1607    8.9522   -2.2648    0.0000    0.0000    0.0000
       2      8.9522   55.1607   -2.2648    0.0000    0.0000    0.0000
       3     -2.2648   -2.2648  113.4283    0.0000    0.0000    0.0000
       4      0.0000    0.0000    0.0000    1.3560    0.0000    0.0000
       5      0.0000    0.0000    0.0000    0.0000    1.3560    0.0000
       6      0.0000    0.0000    0.0000    0.0000    0.0000    6.2771
-------------------------------------------------------------------------------


  Elastic Compliance Matrix: (Units=1/GPa)

-------------------------------------------------------------------------------
  Indices      1         2         3         4         5         6    
-------------------------------------------------------------------------------
       1    0.018630 -0.003011  0.000312  0.000000  0.000000  0.000000
       2   -0.003011  0.018630  0.000312  0.000000  0.000000  0.000000
       3    0.000312  0.000312  0.008829  0.000000  0.000000  0.000000
       4    0.000000  0.000000  0.000000  0.737439  0.000000  0.000000
       5    0.000000  0.000000  0.000000  0.000000  0.737439  0.000000
       6    0.000000  0.000000  0.000000  0.000000  0.000000  0.159310
-------------------------------------------------------------------------------

  Mechanical properties :

-------------------------------------------------------------------------------
  Convention :                    Reuss         Voigt         Hill
-------------------------------------------------------------------------------
  Bulk  Modulus (GPa)     =      24.20423      25.84390      25.02407
  Shear Modulus (GPa)     =       2.94321      16.41965       9.68143
-------------------------------------------------------------------------------
  Velocity S-wave (km/s)  =       1.04081       2.45834       1.88769
  Velocity P-wave (km/s)  =       3.21761       4.19167       3.73652
-------------------------------------------------------------------------------
  Compressibility (1/GPa) =    0.04131508
-------------------------------------------------------------------------------
  Stress axis :                     x             y             z
-------------------------------------------------------------------------------
  Youngs Moduli (GPa)     =      53.67611      53.67611     113.26833
-------------------------------------------------------------------------------
  Poissons Ratio (x)      =                     0.16161      -0.03532
  Poissons Ratio (y)      =       0.16161                    -0.03532
  Poissons Ratio (z)      =      -0.01674      -0.01674
-------------------------------------------------------------------------------


  Piezoelectric Strain Matrix: (Units=C/m**2)

-------------------------------------------------------------------------------
  Indices      1         2         3         4         5         6    
-------------------------------------------------------------------------------
       x     0.00000   0.00000   0.00000   0.00000   0.00000   0.00000
       y     0.00000   0.00000   0.00000   0.00000   0.00000   0.00000
       z     0.00000   0.00000   0.00000   0.00000   0.00000   0.00000
-------------------------------------------------------------------------------


  Piezoelectric Stress Matrix: (Units=10**-11 C/N)

-------------------------------------------------------------------------------
  Indices      1         2         3         4         5         6    
-------------------------------------------------------------------------------
       x     0.00000   0.00000   0.00000   0.00000   0.00000   0.00000
       y     0.00000   0.00000   0.00000   0.00000   0.00000   0.00000
       z     0.00000   0.00000   0.00000   0.00000   0.00000   0.00000
-------------------------------------------------------------------------------


  Static dielectric constant tensor : 

-------------------------------------------------------------------------------
              x         y         z
-------------------------------------------------------------------------------
       x     4.16536   0.00000   0.00000
       y     0.00000   4.16536   0.00000
       z     0.00000   0.00000   1.31119
--------------------------------------------------------------------------------

  High frequency dielectric constant tensor : 

-------------------------------------------------------------------------------
              x         y         z
-------------------------------------------------------------------------------
       x     1.38628   0.00000   0.00000
       y     0.00000   1.38628   0.00000
       z     0.00000   0.00000   1.39444
-------------------------------------------------------------------------------

  Static refractive indices : 

-------------------------------------------------------------------------------
    1 =    1.14507      2 =    2.04092      3 =    2.04092
-------------------------------------------------------------------------------

  High frequency refractive indices : 

-------------------------------------------------------------------------------
    1 =    1.17740      2 =    1.17740      3 =    1.18086
-------------------------------------------------------------------------------


  Time to end of optimisation =       0.0667 seconds


  Peak dynamic memory used =       0.59 MB 


  Timing analysis for GULP :

--------------------------------------------------------------------------------
  Task / Subroutine                                          Time (Seconds)
--------------------------------------------------------------------------------
  Calculation of reciprocal space energy and derivatives          0.0010
  Calculation of reciprocal space energy using symmetry           0.0059
  Calculation of real space energy and derivatives                0.0038
  Calculation of real space energy using symmetry                 0.0520
  Symmetry generation of equivalent positions                     0.0005
--------------------------------------------------------------------------------
  Total CPU time                                                  0.0667
--------------------------------------------------------------------------------


  CIF file written as perov.cif                                               


  Job Finished at 12:49.34 22nd February   2017                               

