********************************************************************************
*                       GENERAL UTILITY LATTICE PROGRAM                        *
*                                 Julian Gale                                  *
*                      Nanochemistry Research Institute                        *
*                           Department of Chemistry                            *
*                    Curtin University, Western Australia                      *
********************************************************************************
* Version = 4.3.2 * Last modified =  3rd March 2015                            *
********************************************************************************
*  optimise     - perform optimisation run                                     *
*  conp         - constant pressure calculation                                *
*  property     - calculate properties for final geometry                      *
********************************************************************************

  Job Started  at 12:49.35 22nd February   2017                               

  Number of CPUs =     1


  Total number of configurations input =   1

********************************************************************************
*  Input for Configuration =   1                                               *
********************************************************************************

  Formula = K2Zn2F6                                                     

  Number of irreducible atoms/shells =       6


  Total number atoms/shells =      16

  Dimensionality = 3               :  Bulk   


  Symmetry :

  Crystal family                   :  Tetragonal  
  Crystal class  (Groth - 1921)    :  Ditetragonal Dipyramidal             

  Space group (centrosymmetric)    :  P 4/M B M       

  Patterson group                  :  P 4/m m m

  Cartesian lattice vectors (Angstroms) :

        4.200000    0.000000    0.000000
        0.000000    4.200000    0.000000
        0.000000    0.000000    4.200000

  Cell parameters (Angstroms/Degrees):

  a =       4.2000    alpha =  90.0000
  b =       4.2000    beta  =  90.0000
  c =       4.2000    gamma =  90.0000

  Initial cell volume =          74.088000 Angs**3

  Temperature of configuration =  0.000     K 

  Pressure of configuration =         0.000 GPa 

  Fractional coordinates of asymmetric unit :

--------------------------------------------------------------------------------
   No.  Atomic       x           y          z         Charge      Occupancy
        Label      (Frac)      (Frac)     (Frac)        (e)         (Frac)  
--------------------------------------------------------------------------------
      1 K     c    0.000000    0.000000    0.000000     1.00000    1.000000    
      2 Zn    c    0.000000    0.500000    0.000000     1.90000    1.000000    
      3 F     c    0.000000    0.500000    0.500000     0.37800    1.000000    
      4 F     c    0.227100 *  0.727100    0.000000     0.37800    1.000000    
      5 F     s    0.000000    0.500000    0.500000    -1.34467    1.000000    
      6 F     s    0.227100 *  0.727100    0.000000    -1.34467    1.000000    
--------------------------------------------------------------------------------


  Constraints : 

--------------------------------------------------------------------------------
  Constraint no.      Unconstrained     Constrained    Coefficient    Offset
                         Variable         Variable
--------------------------------------------------------------------------------
           1              Strain 1        Strain 2       1.00000      0.0000
           2                 4 x             4 y         1.00000      0.5000
           3                 6 x             6 y         1.00000      0.5000
--------------------------------------------------------------------------------


********************************************************************************
*  General input information                                                   *
********************************************************************************

  Species output for all configurations : 

--------------------------------------------------------------------------------
  Species    Type    Atomic    Atomic    Charge       Radii (Angs)     Library
                     Number     Mass       (e)     Cova   Ionic  VDW   Symbol
--------------------------------------------------------------------------------
    K        Core       19      39.10   1.000000   1.330  0.000  2.800          
    Zn       Core       30      65.39   1.900000   1.450  0.000  2.160          
    F        Core        9      19.00   0.378000   0.710  0.000  1.300          
    F        Shell       9       0.00  -1.344667   0.710  0.000  1.300          
--------------------------------------------------------------------------------


  Lattice summation method               =    Ewald          (3-D)
                                         =    Parry          (2-D)
                                         =    Saunders et al (1-D)
  Accuracy factor for lattice sums       =   12.000


  Time limit = Infinity

  Maximum range for interatomic potentials =    100000.000000 Angstroms

  General interatomic potentials :

--------------------------------------------------------------------------------
Atom  Types   Potential         A         B         C         D     Cutoffs(Ang)
  1     2                                                            Min    Max 
--------------------------------------------------------------------------------
K    c K    c Buckingham    0.219E+04 0.192      0.00      0.00     0.000 10.000
Zn   c F    s Buckingham    0.148E+04 0.266      0.00      0.00     0.000 10.000
F    s F    s Buckingham     912.     0.271      13.8      0.00     0.000 10.000
K    c F    s Buckingham    0.352E+04 0.267      0.00      0.00     0.000 10.000
F    c F    s Spring (c-s)   23.2      0.00      0.00      0.00     0.000  0.800
--------------------------------------------------------------------------------

********************************************************************************
*  Output for configuration   1                                                *
********************************************************************************


  Components of energy : 

--------------------------------------------------------------------------------
  Interatomic potentials     =         162.45946484 eV
  Monopole - monopole (real) =         -42.96622598 eV
  Monopole - monopole (recip)=         -61.72175371 eV
  Monopole - monopole (total)=        -104.68797968 eV
--------------------------------------------------------------------------------
  Total lattice energy       =          57.77148516 eV
--------------------------------------------------------------------------------
  Total lattice energy       =            5574.0652 kJ/(mole unit cells)
--------------------------------------------------------------------------------


  Number of variables =        4

  Maximum number of calculations  =          1000
  Maximum Hessian update interval =            10
  Maximum step size               =   1.000000000
  Maximum parameter tolerance     =   0.000010000
  Maximum function  tolerance     =   0.000010000
  Maximum gradient  tolerance     =   0.001000000
  Maximum gradient  component     =   0.010000000

  Symmetry constrained optimisation

  Symmetry used for second derivatives

  Cell parameters to be optimised using strains

  Newton-Raphson optimiser to be used

  BFGS hessian update to be used

  Start of bulk optimisation :

  Cycle:      0 Energy:        57.771485  Gnorm:    209.027068  CPU:    0.005
  ** Hessian calculated **
  Cycle:      1 Energy:       -66.298620  Gnorm:     28.616999  CPU:    0.012
  ** Hessian calculated **
  Cycle:      2 Energy:       -66.906697  Gnorm:     13.113276  CPU:    0.018
  ** Hessian calculated **
  Cycle:      3 Energy:       -67.405911  Gnorm:      7.898693  CPU:    0.024
  Cycle:      4 Energy:       -67.486883  Gnorm:      2.114177  CPU:    0.027
  Cycle:      5 Energy:       -67.499639  Gnorm:      0.273991  CPU:    0.030
  Cycle:      6 Energy:       -67.500306  Gnorm:      0.152452  CPU:    0.034
  Cycle:      7 Energy:       -67.500322  Gnorm:      0.023775  CPU:    0.037
  Cycle:      8 Energy:       -67.500329  Gnorm:      0.013464  CPU:    0.040
  Cycle:      9 Energy:       -67.500330  Gnorm:      0.002674  CPU:    0.043


  **** Optimisation achieved ****


  Final energy =     -67.50032971 eV
  Final Gnorm  =       0.00082278

  Components of energy : 

--------------------------------------------------------------------------------
  Interatomic potentials     =           9.48285628 eV
  Monopole - monopole (real) =         -17.32933143 eV
  Monopole - monopole (recip)=         -59.65385455 eV
  Monopole - monopole (total)=         -76.98318598 eV
--------------------------------------------------------------------------------
  Total lattice energy       =         -67.50032971 eV
--------------------------------------------------------------------------------
  Total lattice energy       =           -6512.7500 kJ/(mole unit cells)
--------------------------------------------------------------------------------

  Final asymmetric unit coordinates :

--------------------------------------------------------------------------------
   No.  Atomic        x           y           z         Radius
        Label       (Frac)      (Frac)      (Frac)       (Angs) 
--------------------------------------------------------------------------------
     1  K     c     0.000000    0.000000    0.000000    0.000000
     2  Zn    c     0.000000    0.500000    0.000000    0.000000
     3  F     c     0.000000    0.500000    0.500000    0.000000
     4  F     c     0.289882    0.789882    0.000000    0.000000
     5  F     s     0.000000    0.500000    0.500000    0.000000
     6  F     s     0.293579    0.793579    0.000000    0.000000
--------------------------------------------------------------------------------

  Final Cartesian lattice vectors (Angstroms) :

        6.913514    0.000000    0.000000
        0.000000    6.913514    0.000000
        0.000000    0.000000    3.919751


  Final cell parameters and derivatives :

--------------------------------------------------------------------------------
       a            6.913514 Angstrom     dE/de1(xx)    -0.001657 eV/strain
       b            6.913514 Angstrom     dE/de2(yy)     0.000000 eV/strain
       c            3.919751 Angstrom     dE/de3(zz)    -0.000224 eV/strain
       alpha       90.000000 Degrees      dE/de4(yz)     0.000000 eV/strain
       beta        90.000000 Degrees      dE/de5(xz)     0.000000 eV/strain
       gamma       90.000000 Degrees      dE/de6(xy)     0.000000 eV/strain
--------------------------------------------------------------------------------

  Primitive cell volume =           187.351074 Angs**3

  Density of cell =      2.862697 g/cm**3

  Non-primitive cell volume =           187.351074 Angs**3


  Final internal derivatives :

--------------------------------------------------------------------------------
   No.  Atomic          a             b             c           Radius
        Label          (eV)          (eV)          (eV)        (eV/Angs)
--------------------------------------------------------------------------------
      1 K     c       0.000000      0.000000      0.000000      0.000000
      2 Zn    c       0.000000      0.000000      0.000000      0.000000
      3 F     c       0.000000      0.000000      0.000000      0.000000
      4 F     c       0.002646      0.000000      0.000000      0.000000
      5 F     s       0.000000      0.000000      0.000000      0.000000
      6 F     s       0.001017      0.000000      0.000000      0.000000
--------------------------------------------------------------------------------
  Maximum abs         0.002646      0.000000      0.000000      0.000000
--------------------------------------------------------------------------------


  Born effective charge tensors : 

-------------------------------------------------------------------------------
  Atom             x           y             z
-------------------------------------------------------------------------------
   1 K     x       0.8433      0.0016      0.0000
           y      -0.0016      0.8433      0.0000
           z       0.0000      0.0000      0.9907
-------------------------------------------------------------------------------
   2 Zn    x       1.6429      0.1926      0.0000
           y       0.1926      1.6429      0.0000
           z       0.0000      0.0000      1.3777
-------------------------------------------------------------------------------
   3 F     x      -0.8287     -0.0093      0.0000
           y      -0.0093     -0.8287      0.0000
           z       0.0000      0.0000     -0.6957
-------------------------------------------------------------------------------
   4 F     x      -0.8287     -0.1528      0.0000
           y      -0.1528     -0.8287      0.0000
           z       0.0000      0.0000     -0.8364
-------------------------------------------------------------------------------




  Elastic Constant Matrix: (Units=GPa)

-------------------------------------------------------------------------------
  Indices      1         2         3         4         5         6    
-------------------------------------------------------------------------------
       1     73.4762   15.7411   -2.7807    0.0000    0.0000    0.0000
       2     15.7411   73.4762   -2.7807    0.0000    0.0000    0.0000
       3     -2.7807   -2.7807  117.9607    0.0000    0.0000    0.0000
       4      0.0000    0.0000    0.0000    2.2602    0.0000    0.0000
       5      0.0000    0.0000    0.0000    0.0000    2.2602    0.0000
       6      0.0000    0.0000    0.0000    0.0000    0.0000   15.0673
-------------------------------------------------------------------------------


  Elastic Compliance Matrix: (Units=1/GPa)

-------------------------------------------------------------------------------
  Indices      1         2         3         4         5         6    
-------------------------------------------------------------------------------
       1    0.014273 -0.003048  0.000265  0.000000  0.000000  0.000000
       2   -0.003048  0.014273  0.000265  0.000000  0.000000  0.000000
       3    0.000265  0.000265  0.008490  0.000000  0.000000  0.000000
       4    0.000000  0.000000  0.000000  0.442430  0.000000  0.000000
       5    0.000000  0.000000  0.000000  0.000000  0.442430  0.000000
       6    0.000000  0.000000  0.000000  0.000000  0.000000  0.066369
-------------------------------------------------------------------------------

  Mechanical properties :

-------------------------------------------------------------------------------
  Convention :                    Reuss         Voigt         Hill
-------------------------------------------------------------------------------
  Bulk  Modulus (GPa)     =      31.25149      31.69695      31.47422
  Shear Modulus (GPa)     =       4.98024      20.89978      12.94001
-------------------------------------------------------------------------------
  Velocity S-wave (km/s)  =       1.31898       2.70199       2.12608
  Velocity P-wave (km/s)  =       3.63819       4.56144       4.12572
-------------------------------------------------------------------------------
  Compressibility (1/GPa) =    0.03199848
-------------------------------------------------------------------------------
  Stress axis :                     x             y             z
-------------------------------------------------------------------------------
  Youngs Moduli (GPa)     =      70.06346      70.06346     117.78736
-------------------------------------------------------------------------------
  Poissons Ratio (x)      =                     0.21353      -0.03117
  Poissons Ratio (y)      =       0.21353                    -0.03117
  Poissons Ratio (z)      =      -0.01854      -0.01854
-------------------------------------------------------------------------------


  Piezoelectric Strain Matrix: (Units=C/m**2)

-------------------------------------------------------------------------------
  Indices      1         2         3         4         5         6    
-------------------------------------------------------------------------------
       x     0.00000   0.00000   0.00000   0.00000   0.00000   0.00000
       y     0.00000   0.00000   0.00000   0.00000   0.00000   0.00000
       z     0.00000   0.00000   0.00000   0.00000   0.00000   0.00000
-------------------------------------------------------------------------------


  Piezoelectric Stress Matrix: (Units=10**-11 C/N)

-------------------------------------------------------------------------------
  Indices      1         2         3         4         5         6    
-------------------------------------------------------------------------------
       x     0.00000   0.00000   0.00000   0.00000   0.00000   0.00000
       y     0.00000   0.00000   0.00000   0.00000   0.00000   0.00000
       z     0.00000   0.00000   0.00000   0.00000   0.00000   0.00000
-------------------------------------------------------------------------------


  Static dielectric constant tensor : 

-------------------------------------------------------------------------------
              x         y         z
-------------------------------------------------------------------------------
       x     2.56536   0.00000   0.00000
       y     0.00000   2.56536   0.00000
       z     0.00000   0.00000   1.01384
--------------------------------------------------------------------------------

  High frequency dielectric constant tensor : 

-------------------------------------------------------------------------------
              x         y         z
-------------------------------------------------------------------------------
       x     1.42292   0.00000   0.00000
       y     0.00000   1.42292   0.00000
       z     0.00000   0.00000   1.41385
-------------------------------------------------------------------------------

  Static refractive indices : 

-------------------------------------------------------------------------------
    1 =    1.00690      2 =    1.60167      3 =    1.60167
-------------------------------------------------------------------------------

  High frequency refractive indices : 

-------------------------------------------------------------------------------
    1 =    1.18906      2 =    1.19286      3 =    1.19286
-------------------------------------------------------------------------------


  Time to end of optimisation =       0.0512 seconds


  Peak dynamic memory used =       0.59 MB 


  Timing analysis for GULP :

--------------------------------------------------------------------------------
  Task / Subroutine                                          Time (Seconds)
--------------------------------------------------------------------------------
  Calculation of reciprocal space energy and derivatives          0.0009
  Calculation of reciprocal space energy using symmetry           0.0043
  Calculation of real space energy and derivatives                0.0037
  Calculation of real space energy using symmetry                 0.0386
  Symmetry generation of equivalent positions                     0.0004
--------------------------------------------------------------------------------
  Total CPU time                                                  0.0513
--------------------------------------------------------------------------------


  CIF file written as perov.cif                                               


  Job Finished at 12:49.35 22nd February   2017                               

