********************************************************************************
*                       GENERAL UTILITY LATTICE PROGRAM                        *
*                                 Julian Gale                                  *
*                      Nanochemistry Research Institute                        *
*                           Department of Chemistry                            *
*                    Curtin University, Western Australia                      *
********************************************************************************
* Version = 4.3.2 * Last modified =  3rd March 2015                            *
********************************************************************************
*  optimise     - perform optimisation run                                     *
*  conp         - constant pressure calculation                                *
*  property     - calculate properties for final geometry                      *
********************************************************************************

  Job Started  at 12:49.38 22nd February   2017                               

  Number of CPUs =     1


  Total number of configurations input =   1

********************************************************************************
*  Input for Configuration =   1                                               *
********************************************************************************

  Formula = K2Zn2F6                                                     

  Number of irreducible atoms/shells =       6


  Total number atoms/shells =      16

  Dimensionality = 3               :  Bulk   


  Symmetry :

  Crystal family                   :  Tetragonal  
  Crystal class  (Groth - 1921)    :  Ditetragonal Dipyramidal             

  Space group (centrosymmetric)    :  P 4/M B M       

  Patterson group                  :  P 4/m m m

  Cartesian lattice vectors (Angstroms) :

        4.200000    0.000000    0.000000
        0.000000    4.200000    0.000000
        0.000000    0.000000    4.200000

  Cell parameters (Angstroms/Degrees):

  a =       4.2000    alpha =  90.0000
  b =       4.2000    beta  =  90.0000
  c =       4.2000    gamma =  90.0000

  Initial cell volume =          74.088000 Angs**3

  Temperature of configuration =  0.000     K 

  Pressure of configuration =         0.000 GPa 

  Fractional coordinates of asymmetric unit :

--------------------------------------------------------------------------------
   No.  Atomic       x           y          z         Charge      Occupancy
        Label      (Frac)      (Frac)     (Frac)        (e)         (Frac)  
--------------------------------------------------------------------------------
      1 K     c    0.000000    0.000000    0.000000     1.40000    1.000000    
      2 Zn    c    0.000000    0.500000    0.000000     2.30000    1.000000    
      3 F     c    0.000000    0.500000    0.500000     0.37800    1.000000    
      4 F     c    0.227100 *  0.727100    0.000000     0.37800    1.000000    
      5 F     s    0.000000    0.500000    0.500000    -1.61133    1.000000    
      6 F     s    0.227100 *  0.727100    0.000000    -1.61133    1.000000    
--------------------------------------------------------------------------------


  Constraints : 

--------------------------------------------------------------------------------
  Constraint no.      Unconstrained     Constrained    Coefficient    Offset
                         Variable         Variable
--------------------------------------------------------------------------------
           1              Strain 1        Strain 2       1.00000      0.0000
           2                 4 x             4 y         1.00000      0.5000
           3                 6 x             6 y         1.00000      0.5000
--------------------------------------------------------------------------------


********************************************************************************
*  General input information                                                   *
********************************************************************************

  Species output for all configurations : 

--------------------------------------------------------------------------------
  Species    Type    Atomic    Atomic    Charge       Radii (Angs)     Library
                     Number     Mass       (e)     Cova   Ionic  VDW   Symbol
--------------------------------------------------------------------------------
    K        Core       19      39.10   1.400000   1.330  0.000  2.800          
    Zn       Core       30      65.39   2.300000   1.450  0.000  2.160          
    F        Core        9      19.00   0.378000   0.710  0.000  1.300          
    F        Shell       9       0.00  -1.611333   0.710  0.000  1.300          
--------------------------------------------------------------------------------


  Lattice summation method               =    Ewald          (3-D)
                                         =    Parry          (2-D)
                                         =    Saunders et al (1-D)
  Accuracy factor for lattice sums       =   12.000


  Time limit = Infinity

  Maximum range for interatomic potentials =    100000.000000 Angstroms

  General interatomic potentials :

--------------------------------------------------------------------------------
Atom  Types   Potential         A         B         C         D     Cutoffs(Ang)
  1     2                                                            Min    Max 
--------------------------------------------------------------------------------
K    c K    c Buckingham    0.219E+04 0.192      0.00      0.00     0.000 10.000
Zn   c F    s Buckingham    0.148E+04 0.266      0.00      0.00     0.000 10.000
F    s F    s Buckingham     912.     0.271      13.8      0.00     0.000 10.000
K    c F    s Buckingham    0.352E+04 0.267      0.00      0.00     0.000 10.000
F    c F    s Spring (c-s)   33.3      0.00      0.00      0.00     0.000  0.800
--------------------------------------------------------------------------------

********************************************************************************
*  Output for configuration   1                                                *
********************************************************************************


  Components of energy : 

--------------------------------------------------------------------------------
  Interatomic potentials     =         162.45946484 eV
  Monopole - monopole (real) =         -68.89823912 eV
  Monopole - monopole (recip)=         -98.28151669 eV
  Monopole - monopole (total)=        -167.17975581 eV
--------------------------------------------------------------------------------
  Total lattice energy       =          -4.72029097 eV
--------------------------------------------------------------------------------
  Total lattice energy       =            -455.4359 kJ/(mole unit cells)
--------------------------------------------------------------------------------


  Number of variables =        4

  Maximum number of calculations  =          1000
  Maximum Hessian update interval =            10
  Maximum step size               =   1.000000000
  Maximum parameter tolerance     =   0.000010000
  Maximum function  tolerance     =   0.000010000
  Maximum gradient  tolerance     =   0.001000000
  Maximum gradient  component     =   0.010000000

  Symmetry constrained optimisation

  Symmetry used for second derivatives

  Cell parameters to be optimised using strains

  Newton-Raphson optimiser to be used

  BFGS hessian update to be used

  Start of bulk optimisation :

  Cycle:      0 Energy:        -4.720291  Gnorm:    194.958131  CPU:    0.005
  ** Hessian calculated **
  Cycle:      1 Energy:      -110.799263  Gnorm:     28.359120  CPU:    0.011
  ** Hessian calculated **
  Cycle:      2 Energy:      -114.116507  Gnorm:      8.850589  CPU:    0.017
  Cycle:      3 Energy:      -114.391804  Gnorm:      3.244627  CPU:    0.021
  Cycle:      4 Energy:      -114.454834  Gnorm:      1.500439  CPU:    0.024
  Cycle:      5 Energy:      -114.463441  Gnorm:      0.272830  CPU:    0.027
  Cycle:      6 Energy:      -114.464207  Gnorm:      0.107625  CPU:    0.031
  Cycle:      7 Energy:      -114.464248  Gnorm:      0.022102  CPU:    0.034
  Cycle:      8 Energy:      -114.464251  Gnorm:      0.008682  CPU:    0.037
  Cycle:      9 Energy:      -114.464252  Gnorm:      0.001090  CPU:    0.040


  **** Optimisation achieved ****


  Final energy =    -114.46425171 eV
  Final Gnorm  =       0.00041977

  Components of energy : 

--------------------------------------------------------------------------------
  Interatomic potentials     =          17.36712379 eV
  Monopole - monopole (real) =         -34.67859144 eV
  Monopole - monopole (recip)=         -97.15278406 eV
  Monopole - monopole (total)=        -131.83137550 eV
--------------------------------------------------------------------------------
  Total lattice energy       =        -114.46425171 eV
--------------------------------------------------------------------------------
  Total lattice energy       =          -11044.0505 kJ/(mole unit cells)
--------------------------------------------------------------------------------

  Final asymmetric unit coordinates :

--------------------------------------------------------------------------------
   No.  Atomic        x           y           z         Radius
        Label       (Frac)      (Frac)      (Frac)       (Angs) 
--------------------------------------------------------------------------------
     1  K     c     0.000000    0.000000    0.000000    0.000000
     2  Zn    c     0.000000    0.500000    0.000000    0.000000
     3  F     c     0.000000    0.500000    0.500000    0.000000
     4  F     c     0.210793    0.710793    0.000000    0.000000
     5  F     s     0.000000    0.500000    0.500000    0.000000
     6  F     s     0.207174    0.707174    0.000000    0.000000
--------------------------------------------------------------------------------

  Final Cartesian lattice vectors (Angstroms) :

        6.407943    0.000000    0.000000
        0.000000    6.407943    0.000000
        0.000000    0.000000    3.615000


  Final cell parameters and derivatives :

--------------------------------------------------------------------------------
       a            6.407943 Angstrom     dE/de1(xx)     0.000293 eV/strain
       b            6.407943 Angstrom     dE/de2(yy)     0.000000 eV/strain
       c            3.615000 Angstrom     dE/de3(zz)    -0.000186 eV/strain
       alpha       90.000000 Degrees      dE/de4(yz)     0.000000 eV/strain
       beta        90.000000 Degrees      dE/de5(xz)     0.000000 eV/strain
       gamma       90.000000 Degrees      dE/de6(xy)     0.000000 eV/strain
--------------------------------------------------------------------------------

  Primitive cell volume =           148.438171 Angs**3

  Density of cell =      3.613150 g/cm**3

  Non-primitive cell volume =           148.438171 Angs**3


  Final internal derivatives :

--------------------------------------------------------------------------------
   No.  Atomic          a             b             c           Radius
        Label          (eV)          (eV)          (eV)        (eV/Angs)
--------------------------------------------------------------------------------
      1 K     c       0.000000      0.000000      0.000000      0.000000
      2 Zn    c       0.000000      0.000000      0.000000      0.000000
      3 F     c       0.000000      0.000000      0.000000      0.000000
      4 F     c      -0.001491      0.000000      0.000000      0.000000
      5 F     s       0.000000      0.000000      0.000000      0.000000
      6 F     s       0.000690      0.000000      0.000000      0.000000
--------------------------------------------------------------------------------
  Maximum abs         0.001491      0.000000      0.000000      0.000000
--------------------------------------------------------------------------------


  Born effective charge tensors : 

-------------------------------------------------------------------------------
  Atom             x           y             z
-------------------------------------------------------------------------------
   1 K     x       1.1786     -0.0009      0.0000
           y       0.0009      1.1786      0.0000
           z       0.0000      0.0000      1.3868
-------------------------------------------------------------------------------
   2 Zn    x       1.9871     -0.2408      0.0000
           y      -0.2408      1.9871      0.0000
           z       0.0000      0.0000      1.6043
-------------------------------------------------------------------------------
   3 F     x      -1.0565      0.0149      0.0000
           y       0.0149     -1.0565      0.0000
           z       0.0000      0.0000     -0.9018
-------------------------------------------------------------------------------
   4 F     x      -1.0546     -0.2289      0.0000
           y      -0.2289     -1.0546      0.0000
           z       0.0000      0.0000     -1.0446
-------------------------------------------------------------------------------




  Elastic Constant Matrix: (Units=GPa)

-------------------------------------------------------------------------------
  Indices      1         2         3         4         5         6    
-------------------------------------------------------------------------------
       1    165.0112   34.6669   -5.9923    0.0000    0.0000    0.0000
       2     34.6669  165.0112   -5.9923    0.0000    0.0000    0.0000
       3     -5.9923   -5.9923  213.6921    0.0000    0.0000    0.0000
       4      0.0000    0.0000    0.0000    4.7844    0.0000    0.0000
       5      0.0000    0.0000    0.0000    0.0000    4.7844    0.0000
       6      0.0000    0.0000    0.0000    0.0000    0.0000   36.2814
-------------------------------------------------------------------------------


  Elastic Compliance Matrix: (Units=1/GPa)

-------------------------------------------------------------------------------
  Indices      1         2         3         4         5         6    
-------------------------------------------------------------------------------
       1    0.006344 -0.001328  0.000141  0.000000  0.000000  0.000000
       2   -0.001328  0.006344  0.000141  0.000000  0.000000  0.000000
       3    0.000141  0.000141  0.004688  0.000000  0.000000  0.000000
       4    0.000000  0.000000  0.000000  0.209012  0.000000  0.000000
       5    0.000000  0.000000  0.000000  0.000000  0.209012  0.000000
       6    0.000000  0.000000  0.000000  0.000000  0.000000  0.027562
-------------------------------------------------------------------------------

  Mechanical properties :

-------------------------------------------------------------------------------
  Convention :                    Reuss         Voigt         Hill
-------------------------------------------------------------------------------
  Bulk  Modulus (GPa)     =      65.43126      65.45322      65.44224
  Shear Modulus (GPa)     =      10.63491      43.90552      27.27021
-------------------------------------------------------------------------------
  Velocity S-wave (km/s)  =       1.71563       3.48591       2.74727
  Velocity P-wave (km/s)  =       4.69401       5.85811       5.30807
-------------------------------------------------------------------------------
  Compressibility (1/GPa) =    0.01528322
-------------------------------------------------------------------------------
  Stress axis :                     x             y             z
-------------------------------------------------------------------------------
  Youngs Moduli (GPa)     =     157.62312     157.62312     213.33245
-------------------------------------------------------------------------------
  Poissons Ratio (x)      =                     0.20928      -0.03001
  Poissons Ratio (y)      =       0.20928                    -0.03001
  Poissons Ratio (z)      =      -0.02217      -0.02217
-------------------------------------------------------------------------------


  Piezoelectric Strain Matrix: (Units=C/m**2)

-------------------------------------------------------------------------------
  Indices      1         2         3         4         5         6    
-------------------------------------------------------------------------------
       x     0.00000   0.00000   0.00000   0.00000   0.00000   0.00000
       y     0.00000   0.00000   0.00000   0.00000   0.00000   0.00000
       z     0.00000   0.00000   0.00000   0.00000   0.00000   0.00000
-------------------------------------------------------------------------------


  Piezoelectric Stress Matrix: (Units=10**-11 C/N)

-------------------------------------------------------------------------------
  Indices      1         2         3         4         5         6    
-------------------------------------------------------------------------------
       x     0.00000   0.00000   0.00000   0.00000   0.00000   0.00000
       y     0.00000   0.00000   0.00000   0.00000   0.00000   0.00000
       z     0.00000   0.00000   0.00000   0.00000   0.00000   0.00000
-------------------------------------------------------------------------------


  Static dielectric constant tensor : 

-------------------------------------------------------------------------------
              x         y         z
-------------------------------------------------------------------------------
       x     2.38241   0.00000   0.00000
       y     0.00000   2.38241   0.00000
       z     0.00000   0.00000   0.74602
--------------------------------------------------------------------------------

  High frequency dielectric constant tensor : 

-------------------------------------------------------------------------------
              x         y         z
-------------------------------------------------------------------------------
       x     1.53072   0.00000   0.00000
       y     0.00000   1.53072   0.00000
       z     0.00000   0.00000   1.51488
-------------------------------------------------------------------------------

  Static refractive indices : 

-------------------------------------------------------------------------------
    1 =    0.86372      2 =    1.54351      3 =    1.54351
-------------------------------------------------------------------------------

  High frequency refractive indices : 

-------------------------------------------------------------------------------
    1 =    1.23080      2 =    1.23722      3 =    1.23722
-------------------------------------------------------------------------------


  Time to end of optimisation =       0.0486 seconds


  Peak dynamic memory used =       0.59 MB 


  Timing analysis for GULP :

--------------------------------------------------------------------------------
  Task / Subroutine                                          Time (Seconds)
--------------------------------------------------------------------------------
  Calculation of reciprocal space energy and derivatives          0.0009
  Calculation of reciprocal space energy using symmetry           0.0039
  Calculation of real space energy and derivatives                0.0038
  Calculation of real space energy using symmetry                 0.0362
  Symmetry generation of equivalent positions                     0.0004
--------------------------------------------------------------------------------
  Total CPU time                                                  0.0487
--------------------------------------------------------------------------------


  CIF file written as perov.cif                                               


  Job Finished at 12:49.38 22nd February   2017                               

