********************************************************************************
*                       GENERAL UTILITY LATTICE PROGRAM                        *
*                                 Julian Gale                                  *
*                      Nanochemistry Research Institute                        *
*                           Department of Chemistry                            *
*                    Curtin University, Western Australia                      *
********************************************************************************
* Version = 4.3.2 * Last modified =  3rd March 2015                            *
********************************************************************************
*  optimise     - perform optimisation run                                     *
*  conp         - constant pressure calculation                                *
*  property     - calculate properties for final geometry                      *
********************************************************************************

  Job Started  at 12:49.32 22nd February   2017                               

  Number of CPUs =     1


  Total number of configurations input =   1

********************************************************************************
*  Input for Configuration =   1                                               *
********************************************************************************

  Formula = K2Zn2F6                                                     

  Number of irreducible atoms/shells =       6


  Total number atoms/shells =      16

  Dimensionality = 3               :  Bulk   


  Symmetry :

  Crystal family                   :  Tetragonal  
  Crystal class  (Groth - 1921)    :  Ditetragonal Dipyramidal             

  Space group (centrosymmetric)    :  P 4/M B M       

  Patterson group                  :  P 4/m m m

  Cartesian lattice vectors (Angstroms) :

        4.200000    0.000000    0.000000
        0.000000    4.200000    0.000000
        0.000000    0.000000    4.200000

  Cell parameters (Angstroms/Degrees):

  a =       4.2000    alpha =  90.0000
  b =       4.2000    beta  =  90.0000
  c =       4.2000    gamma =  90.0000

  Initial cell volume =          74.088000 Angs**3

  Temperature of configuration =  0.000     K 

  Pressure of configuration =         0.000 GPa 

  Fractional coordinates of asymmetric unit :

--------------------------------------------------------------------------------
   No.  Atomic       x           y          z         Charge      Occupancy
        Label      (Frac)      (Frac)     (Frac)        (e)         (Frac)  
--------------------------------------------------------------------------------
      1 K     c    0.000000    0.000000    0.000000     0.60000    1.000000    
      2 Zn    c    0.000000    0.500000    0.000000     1.90000    1.000000    
      3 F     c    0.000000    0.500000    0.500000     0.37800    1.000000    
      4 F     c    0.227100 *  0.727100    0.000000     0.37800    1.000000    
      5 F     s    0.000000    0.500000    0.500000    -1.21133    1.000000    
      6 F     s    0.227100 *  0.727100    0.000000    -1.21133    1.000000    
--------------------------------------------------------------------------------


  Constraints : 

--------------------------------------------------------------------------------
  Constraint no.      Unconstrained     Constrained    Coefficient    Offset
                         Variable         Variable
--------------------------------------------------------------------------------
           1              Strain 1        Strain 2       1.00000      0.0000
           2                 4 x             4 y         1.00000      0.5000
           3                 6 x             6 y         1.00000      0.5000
--------------------------------------------------------------------------------


********************************************************************************
*  General input information                                                   *
********************************************************************************

  Species output for all configurations : 

--------------------------------------------------------------------------------
  Species    Type    Atomic    Atomic    Charge       Radii (Angs)     Library
                     Number     Mass       (e)     Cova   Ionic  VDW   Symbol
--------------------------------------------------------------------------------
    K        Core       19      39.10   0.600000   1.330  0.000  2.800          
    Zn       Core       30      65.39   1.900000   1.450  0.000  2.160          
    F        Core        9      19.00   0.378000   0.710  0.000  1.300          
    F        Shell       9       0.00  -1.211333   0.710  0.000  1.300          
--------------------------------------------------------------------------------


  Lattice summation method               =    Ewald          (3-D)
                                         =    Parry          (2-D)
                                         =    Saunders et al (1-D)
  Accuracy factor for lattice sums       =   12.000


  Time limit = Infinity

  Maximum range for interatomic potentials =    100000.000000 Angstroms

  General interatomic potentials :

--------------------------------------------------------------------------------
Atom  Types   Potential         A         B         C         D     Cutoffs(Ang)
  1     2                                                            Min    Max 
--------------------------------------------------------------------------------
K    c K    c Buckingham    0.219E+04 0.192      0.00      0.00     0.000 10.000
Zn   c F    s Buckingham    0.148E+04 0.266      0.00      0.00     0.000 10.000
F    s F    s Buckingham     912.     0.271      13.8      0.00     0.000 10.000
K    c F    s Buckingham    0.352E+04 0.267      0.00      0.00     0.000 10.000
F    c F    s Spring (c-s)   18.8      0.00      0.00      0.00     0.000  0.800
--------------------------------------------------------------------------------

********************************************************************************
*  Output for configuration   1                                                *
********************************************************************************


  Components of energy : 

--------------------------------------------------------------------------------
  Interatomic potentials     =         162.45946484 eV
  Monopole - monopole (real) =         -33.89499951 eV
  Monopole - monopole (recip)=         -50.52479686 eV
  Monopole - monopole (total)=         -84.41979637 eV
--------------------------------------------------------------------------------
  Total lattice energy       =          78.03966847 eV
--------------------------------------------------------------------------------
  Total lattice energy       =            7529.6351 kJ/(mole unit cells)
--------------------------------------------------------------------------------


  Number of variables =        4

  Maximum number of calculations  =          1000
  Maximum Hessian update interval =            10
  Maximum step size               =   1.000000000
  Maximum parameter tolerance     =   0.000010000
  Maximum function  tolerance     =   0.000010000
  Maximum gradient  tolerance     =   0.001000000
  Maximum gradient  component     =   0.010000000

  Symmetry constrained optimisation

  Symmetry used for second derivatives

  Cell parameters to be optimised using strains

  Newton-Raphson optimiser to be used

  BFGS hessian update to be used

  Start of bulk optimisation :

  Cycle:      0 Energy:        78.039668  Gnorm:    212.970533  CPU:    0.005
  ** Hessian calculated **
  Cycle:      1 Energy:       -51.816832  Gnorm:     30.857349  CPU:    0.014
  ** Hessian calculated **
  Cycle:      2 Energy:       -53.031188  Gnorm:      8.318207  CPU:    0.021
  Cycle:      3 Energy:       -53.611208  Gnorm:     14.774825  CPU:    0.028
  Cycle:      4 Energy:       -53.708609  Gnorm:     16.768380  CPU:    0.031
  ** Hessian calculated **
  Cycle:      5 Energy:       -53.849671  Gnorm:      0.654380  CPU:    0.037
  Cycle:      6 Energy:       -53.851886  Gnorm:      0.440282  CPU:    0.040
  Cycle:      7 Energy:       -53.851993  Gnorm:      0.027281  CPU:    0.043
  Cycle:      8 Energy:       -53.851998  Gnorm:      0.019517  CPU:    0.046
  Cycle:      9 Energy:       -53.851998  Gnorm:      0.002040  CPU:    0.050
  Cycle:     10 Energy:       -53.851998  Gnorm:      0.002559  CPU:    0.054


  **** Optimisation achieved ****


  Final energy =     -53.85199801 eV
  Final Gnorm  =       0.00034180

  Components of energy : 

--------------------------------------------------------------------------------
  Interatomic potentials     =           7.80157900 eV
  Monopole - monopole (real) =         -14.47035814 eV
  Monopole - monopole (recip)=         -47.18321887 eV
  Monopole - monopole (total)=         -61.65357701 eV
--------------------------------------------------------------------------------
  Total lattice energy       =         -53.85199801 eV
--------------------------------------------------------------------------------
  Total lattice energy       =           -5195.8946 kJ/(mole unit cells)
--------------------------------------------------------------------------------

  Final asymmetric unit coordinates :

--------------------------------------------------------------------------------
   No.  Atomic        x           y           z         Radius
        Label       (Frac)      (Frac)      (Frac)       (Angs) 
--------------------------------------------------------------------------------
     1  K     c     0.000000    0.000000    0.000000    0.000000
     2  Zn    c     0.000000    0.500000    0.000000    0.000000
     3  F     c     0.000000    0.500000    0.500000    0.000000
     4  F     c     0.195492    0.695492    0.000000    0.000000
     5  F     s     0.000000    0.500000    0.500000    0.000000
     6  F     s     0.189562    0.689562    0.000000    0.000000
--------------------------------------------------------------------------------

  Final Cartesian lattice vectors (Angstroms) :

        7.400508    0.000000    0.000000
        0.000000    7.400508    0.000000
        0.000000    0.000000    4.026646


  Final cell parameters and derivatives :

--------------------------------------------------------------------------------
       a            7.400508 Angstrom     dE/de1(xx)    -0.000767 eV/strain
       b            7.400508 Angstrom     dE/de2(yy)     0.000000 eV/strain
       c            4.026646 Angstrom     dE/de3(zz)    -0.000009 eV/strain
       alpha       90.000000 Degrees      dE/de4(yz)     0.000000 eV/strain
       beta        90.000000 Degrees      dE/de5(xz)     0.000000 eV/strain
       gamma       90.000000 Degrees      dE/de6(xy)     0.000000 eV/strain
--------------------------------------------------------------------------------

  Primitive cell volume =           220.529426 Angs**3

  Density of cell =      2.432008 g/cm**3

  Non-primitive cell volume =           220.529426 Angs**3


  Final internal derivatives :

--------------------------------------------------------------------------------
   No.  Atomic          a             b             c           Radius
        Label          (eV)          (eV)          (eV)        (eV/Angs)
--------------------------------------------------------------------------------
      1 K     c       0.000000      0.000000      0.000000      0.000000
      2 Zn    c       0.000000      0.000000      0.000000      0.000000
      3 F     c       0.000000      0.000000      0.000000      0.000000
      4 F     c      -0.000210      0.000000      0.000000      0.000000
      5 F     s       0.000000      0.000000      0.000000      0.000000
      6 F     s      -0.001112      0.000000      0.000000      0.000000
--------------------------------------------------------------------------------
  Maximum abs         0.001112      0.000000      0.000000      0.000000
--------------------------------------------------------------------------------


  Born effective charge tensors : 

-------------------------------------------------------------------------------
  Atom             x           y             z
-------------------------------------------------------------------------------
   1 K     x       0.5146     -0.0002      0.0000
           y       0.0002      0.5146      0.0000
           z       0.0000      0.0000      0.6001
-------------------------------------------------------------------------------
   2 Zn    x       1.4770     -0.2403      0.0000
           y      -0.2403      1.4770      0.0000
           z       0.0000      0.0000      1.4525
-------------------------------------------------------------------------------
   3 F     x      -0.6611      0.0082      0.0000
           y       0.0082     -0.6611      0.0000
           z       0.0000      0.0000     -0.5893
-------------------------------------------------------------------------------
   4 F     x      -0.6653     -0.0503      0.0000
           y      -0.0503     -0.6653      0.0000
           z       0.0000      0.0000     -0.7316
-------------------------------------------------------------------------------




  Elastic Constant Matrix: (Units=GPa)

-------------------------------------------------------------------------------
  Indices      1         2         3         4         5         6    
-------------------------------------------------------------------------------
       1     34.1816    4.8595   -1.4282    0.0000    0.0000    0.0000
       2      4.8595   34.1816   -1.4282    0.0000    0.0000    0.0000
       3     -1.4282   -1.4282   88.2137    0.0000    0.0000    0.0000
       4      0.0000    0.0000    0.0000    0.8438    0.0000    0.0000
       5      0.0000    0.0000    0.0000    0.0000    0.8438    0.0000
       6      0.0000    0.0000    0.0000    0.0000    0.0000    2.0538
-------------------------------------------------------------------------------


  Elastic Compliance Matrix: (Units=1/GPa)

-------------------------------------------------------------------------------
  Indices      1         2         3         4         5         6    
-------------------------------------------------------------------------------
       1    0.029874 -0.004230  0.000415  0.000000  0.000000  0.000000
       2   -0.004230  0.029874  0.000415  0.000000  0.000000  0.000000
       3    0.000415  0.000415  0.011350  0.000000  0.000000  0.000000
       4    0.000000  0.000000  0.000000  1.185048  0.000000  0.000000
       5    0.000000  0.000000  0.000000  0.000000  1.185048  0.000000
       6    0.000000  0.000000  0.000000  0.000000  0.000000  0.486899
-------------------------------------------------------------------------------

  Mechanical properties :

-------------------------------------------------------------------------------
  Convention :                    Reuss         Voigt         Hill
-------------------------------------------------------------------------------
  Bulk  Modulus (GPa)     =      15.55232      17.84257      16.69745
  Shear Modulus (GPa)     =       1.69129      11.05322       6.37225
-------------------------------------------------------------------------------
  Velocity S-wave (km/s)  =       0.83392       2.13188       1.61869
  Velocity P-wave (km/s)  =       2.70594       3.66011       3.21858
-------------------------------------------------------------------------------
  Compressibility (1/GPa) =    0.06429908
-------------------------------------------------------------------------------
  Stress axis :                     x             y             z
-------------------------------------------------------------------------------
  Youngs Moduli (GPa)     =      33.47372      33.47372      88.10919
-------------------------------------------------------------------------------
  Poissons Ratio (x)      =                     0.14159      -0.03658
  Poissons Ratio (y)      =       0.14159                    -0.03658
  Poissons Ratio (z)      =      -0.01390      -0.01390
-------------------------------------------------------------------------------


  Piezoelectric Strain Matrix: (Units=C/m**2)

-------------------------------------------------------------------------------
  Indices      1         2         3         4         5         6    
-------------------------------------------------------------------------------
       x     0.00000   0.00000   0.00000   0.00000   0.00000   0.00000
       y     0.00000   0.00000   0.00000   0.00000   0.00000   0.00000
       z     0.00000   0.00000   0.00000   0.00000   0.00000   0.00000
-------------------------------------------------------------------------------


  Piezoelectric Stress Matrix: (Units=10**-11 C/N)

-------------------------------------------------------------------------------
  Indices      1         2         3         4         5         6    
-------------------------------------------------------------------------------
       x     0.00000   0.00000   0.00000   0.00000   0.00000   0.00000
       y     0.00000   0.00000   0.00000   0.00000   0.00000   0.00000
       z     0.00000   0.00000   0.00000   0.00000   0.00000   0.00000
-------------------------------------------------------------------------------


  Static dielectric constant tensor : 

-------------------------------------------------------------------------------
              x         y         z
-------------------------------------------------------------------------------
       x     3.22018   0.00000   0.00000
       y     0.00000   3.22018   0.00000
       z     0.00000   0.00000   1.61779
--------------------------------------------------------------------------------

  High frequency dielectric constant tensor : 

-------------------------------------------------------------------------------
              x         y         z
-------------------------------------------------------------------------------
       x     1.34195   0.00000   0.00000
       y     0.00000   1.34195   0.00000
       z     0.00000   0.00000   1.35635
-------------------------------------------------------------------------------

  Static refractive indices : 

-------------------------------------------------------------------------------
    1 =    1.27193      2 =    1.79448      3 =    1.79448
-------------------------------------------------------------------------------

  High frequency refractive indices : 

-------------------------------------------------------------------------------
    1 =    1.15843      2 =    1.15843      3 =    1.16462
-------------------------------------------------------------------------------


  Time to end of optimisation =       0.0626 seconds


  Peak dynamic memory used =       0.59 MB 


  Timing analysis for GULP :

--------------------------------------------------------------------------------
  Task / Subroutine                                          Time (Seconds)
--------------------------------------------------------------------------------
  Calculation of reciprocal space energy and derivatives          0.0010
  Calculation of reciprocal space energy using symmetry           0.0056
  Calculation of real space energy and derivatives                0.0042
  Calculation of real space energy using symmetry                 0.0474
  Symmetry generation of equivalent positions                     0.0005
--------------------------------------------------------------------------------
  Total CPU time                                                  0.0626
--------------------------------------------------------------------------------


  CIF file written as perov.cif                                               


  Job Finished at 12:49.32 22nd February   2017                               

