********************************************************************************
*                       GENERAL UTILITY LATTICE PROGRAM                        *
*                                 Julian Gale                                  *
*                      Nanochemistry Research Institute                        *
*                           Department of Chemistry                            *
*                    Curtin University, Western Australia                      *
********************************************************************************
* Version = 4.3.2 * Last modified =  3rd March 2015                            *
********************************************************************************
*  optimise     - perform optimisation run                                     *
*  conp         - constant pressure calculation                                *
*  property     - calculate properties for final geometry                      *
********************************************************************************

  Job Started  at 12:49.31 22nd February   2017                               

  Number of CPUs =     1


  Total number of configurations input =   1

********************************************************************************
*  Input for Configuration =   1                                               *
********************************************************************************

  Formula = K2Zn2F6                                                     

  Number of irreducible atoms/shells =       6


  Total number atoms/shells =      16

  Dimensionality = 3               :  Bulk   


  Symmetry :

  Crystal family                   :  Tetragonal  
  Crystal class  (Groth - 1921)    :  Ditetragonal Dipyramidal             

  Space group (centrosymmetric)    :  P 4/M B M       

  Patterson group                  :  P 4/m m m

  Cartesian lattice vectors (Angstroms) :

        4.200000    0.000000    0.000000
        0.000000    4.200000    0.000000
        0.000000    0.000000    4.200000

  Cell parameters (Angstroms/Degrees):

  a =       4.2000    alpha =  90.0000
  b =       4.2000    beta  =  90.0000
  c =       4.2000    gamma =  90.0000

  Initial cell volume =          74.088000 Angs**3

  Temperature of configuration =  0.000     K 

  Pressure of configuration =         0.000 GPa 

  Fractional coordinates of asymmetric unit :

--------------------------------------------------------------------------------
   No.  Atomic       x           y          z         Charge      Occupancy
        Label      (Frac)      (Frac)     (Frac)        (e)         (Frac)  
--------------------------------------------------------------------------------
      1 K     c    0.000000    0.000000    0.000000     0.50000    1.000000    
      2 Zn    c    0.000000    0.500000    0.000000     2.10000    1.000000    
      3 F     c    0.000000    0.500000    0.500000     0.37800    1.000000    
      4 F     c    0.227100 *  0.727100    0.000000     0.37800    1.000000    
      5 F     s    0.000000    0.500000    0.500000    -1.24467    1.000000    
      6 F     s    0.227100 *  0.727100    0.000000    -1.24467    1.000000    
--------------------------------------------------------------------------------


  Constraints : 

--------------------------------------------------------------------------------
  Constraint no.      Unconstrained     Constrained    Coefficient    Offset
                         Variable         Variable
--------------------------------------------------------------------------------
           1              Strain 1        Strain 2       1.00000      0.0000
           2                 4 x             4 y         1.00000      0.5000
           3                 6 x             6 y         1.00000      0.5000
--------------------------------------------------------------------------------


********************************************************************************
*  General input information                                                   *
********************************************************************************

  Species output for all configurations : 

--------------------------------------------------------------------------------
  Species    Type    Atomic    Atomic    Charge       Radii (Angs)     Library
                     Number     Mass       (e)     Cova   Ionic  VDW   Symbol
--------------------------------------------------------------------------------
    K        Core       19      39.10   0.500000   1.330  0.000  2.800          
    Zn       Core       30      65.39   2.100000   1.450  0.000  2.160          
    F        Core        9      19.00   0.378000   0.710  0.000  1.300          
    F        Shell       9       0.00  -1.244667   0.710  0.000  1.300          
--------------------------------------------------------------------------------


  Lattice summation method               =    Ewald          (3-D)
                                         =    Parry          (2-D)
                                         =    Saunders et al (1-D)
  Accuracy factor for lattice sums       =   12.000


  Time limit = Infinity

  Maximum range for interatomic potentials =    100000.000000 Angstroms

  General interatomic potentials :

--------------------------------------------------------------------------------
Atom  Types   Potential         A         B         C         D     Cutoffs(Ang)
  1     2                                                            Min    Max 
--------------------------------------------------------------------------------
K    c K    c Buckingham    0.219E+04 0.192      0.00      0.00     0.000 10.000
Zn   c F    s Buckingham    0.148E+04 0.266      0.00      0.00     0.000 10.000
F    s F    s Buckingham     912.     0.271      13.8      0.00     0.000 10.000
K    c F    s Buckingham    0.352E+04 0.267      0.00      0.00     0.000 10.000
F    c F    s Spring (c-s)   19.9      0.00      0.00      0.00     0.000  0.800
--------------------------------------------------------------------------------

********************************************************************************
*  Output for configuration   1                                                *
********************************************************************************


  Components of energy : 

--------------------------------------------------------------------------------
  Interatomic potentials     =         162.45946484 eV
  Monopole - monopole (real) =         -37.88551372 eV
  Monopole - monopole (recip)=         -57.76871643 eV
  Monopole - monopole (total)=         -95.65423015 eV
--------------------------------------------------------------------------------
  Total lattice energy       =          66.80523469 eV
--------------------------------------------------------------------------------
  Total lattice energy       =            6445.6839 kJ/(mole unit cells)
--------------------------------------------------------------------------------


  Number of variables =        4

  Maximum number of calculations  =          1000
  Maximum Hessian update interval =            10
  Maximum step size               =   1.000000000
  Maximum parameter tolerance     =   0.000010000
  Maximum function  tolerance     =   0.000010000
  Maximum gradient  tolerance     =   0.001000000
  Maximum gradient  component     =   0.010000000

  Symmetry constrained optimisation

  Symmetry used for second derivatives

  Cell parameters to be optimised using strains

  Newton-Raphson optimiser to be used

  BFGS hessian update to be used

  Start of bulk optimisation :

  Cycle:      0 Energy:        66.805235  Gnorm:    209.790848  CPU:    0.005
  ** Hessian calculated **
  Cycle:      1 Energy:       -59.925000  Gnorm:     33.673774  CPU:    0.012
  ** Hessian calculated **
  Cycle:      2 Energy:       -61.225229  Gnorm:      8.691970  CPU:    0.018
  ** Hessian calculated **
  Cycle:      3 Energy:       -61.411433  Gnorm:     15.209040  CPU:    0.024
  ** Hessian calculated **
  Cycle:      4 Energy:       -61.539722  Gnorm:      3.904134  CPU:    0.029
  Cycle:      5 Energy:       -61.739583  Gnorm:      4.515102  CPU:    0.035
  Cycle:      6 Energy:       -61.945237  Gnorm:      4.858939  CPU:    0.039
  Cycle:      7 Energy:       -62.158898  Gnorm:      5.599376  CPU:    0.043
  Cycle:      8 Energy:       -62.422588  Gnorm:      2.950271  CPU:    0.047
  Cycle:      9 Energy:       -62.531282  Gnorm:      1.521449  CPU:    0.050
  Cycle:     10 Energy:       -62.533986  Gnorm:      1.105376  CPU:    0.054
  Cycle:     11 Energy:       -62.534887  Gnorm:      0.708648  CPU:    0.058
  Cycle:     12 Energy:       -62.535315  Gnorm:      0.285229  CPU:    0.061
  Cycle:     13 Energy:       -62.535432  Gnorm:      0.072816  CPU:    0.064
  ** Hessian calculated **
  Cycle:     14 Energy:       -62.535439  Gnorm:      0.006868  CPU:    0.069
  Cycle:     15 Energy:       -62.535439  Gnorm:      0.007739  CPU:    0.072
  Cycle:     16 Energy:       -62.535440  Gnorm:      0.007551  CPU:    0.075
  Cycle:     17 Energy:       -62.535440  Gnorm:      0.002231  CPU:    0.078
  Cycle:     18 Energy:       -62.535440  Gnorm:      0.001033  CPU:    0.082
  Cycle:     19 Energy:       -62.535440  Gnorm:      0.001091  CPU:    0.085


  **** Optimisation achieved ****


  Final energy =     -62.53543965 eV
  Final Gnorm  =       0.00034350

  Components of energy : 

--------------------------------------------------------------------------------
  Interatomic potentials     =           9.63105423 eV
  Monopole - monopole (real) =         -19.38800832 eV
  Monopole - monopole (recip)=         -52.77848555 eV
  Monopole - monopole (total)=         -72.16649388 eV
--------------------------------------------------------------------------------
  Total lattice energy       =         -62.53543965 eV
--------------------------------------------------------------------------------
  Total lattice energy       =           -6033.7140 kJ/(mole unit cells)
--------------------------------------------------------------------------------

  Final asymmetric unit coordinates :

--------------------------------------------------------------------------------
   No.  Atomic        x           y           z         Radius
        Label       (Frac)      (Frac)      (Frac)       (Angs) 
--------------------------------------------------------------------------------
     1  K     c     0.000000    0.000000    0.000000    0.000000
     2  Zn    c     0.000000    0.500000    0.000000    0.000000
     3  F     c     0.000000    0.500000    0.500000    0.000000
     4  F     c     0.187663    0.687663    0.000000    0.000000
     5  F     s     0.000000    0.500000    0.500000    0.000000
     6  F     s     0.180268    0.680268    0.000000    0.000000
--------------------------------------------------------------------------------

  Final Cartesian lattice vectors (Angstroms) :

        7.450085    0.000000    0.000000
        0.000000    7.450085    0.000000
        0.000000    0.000000    3.934190


  Final cell parameters and derivatives :

--------------------------------------------------------------------------------
       a            7.450085 Angstrom     dE/de1(xx)    -0.000204 eV/strain
       b            7.450085 Angstrom     dE/de2(yy)     0.000000 eV/strain
       c            3.934190 Angstrom     dE/de3(zz)     0.000123 eV/strain
       alpha       90.000000 Degrees      dE/de4(yz)     0.000000 eV/strain
       beta        90.000000 Degrees      dE/de5(xz)     0.000000 eV/strain
       gamma       90.000000 Degrees      dE/de6(xy)     0.000000 eV/strain
--------------------------------------------------------------------------------

  Primitive cell volume =           218.362328 Angs**3

  Density of cell =      2.456145 g/cm**3

  Non-primitive cell volume =           218.362328 Angs**3


  Final internal derivatives :

--------------------------------------------------------------------------------
   No.  Atomic          a             b             c           Radius
        Label          (eV)          (eV)          (eV)        (eV/Angs)
--------------------------------------------------------------------------------
      1 K     c       0.000000      0.000000      0.000000      0.000000
      2 Zn    c       0.000000      0.000000      0.000000      0.000000
      3 F     c       0.000000      0.000000      0.000000      0.000000
      4 F     c      -0.000932      0.000000      0.000000      0.000000
      5 F     s       0.000000      0.000000      0.000000      0.000000
      6 F     s       0.000981      0.000000      0.000000      0.000000
--------------------------------------------------------------------------------
  Maximum abs         0.000981      0.000000      0.000000      0.000000
--------------------------------------------------------------------------------


  Born effective charge tensors : 

-------------------------------------------------------------------------------
  Atom             x           y             z
-------------------------------------------------------------------------------
   1 K     x       0.4289      0.0003      0.0000
           y      -0.0003      0.4289      0.0000
           z       0.0000      0.0000      0.5039
-------------------------------------------------------------------------------
   2 Zn    x       1.5219     -0.2992      0.0000
           y      -0.2992      1.5219      0.0000
           z       0.0000      0.0000      1.6227
-------------------------------------------------------------------------------
   3 F     x      -0.6491      0.0091      0.0000
           y       0.0091     -0.6491      0.0000
           z       0.0000      0.0000     -0.6068
-------------------------------------------------------------------------------
   4 F     x      -0.6508     -0.0104      0.0000
           y      -0.0104     -0.6508      0.0000
           z       0.0000      0.0000     -0.7599
-------------------------------------------------------------------------------




  Elastic Constant Matrix: (Units=GPa)

-------------------------------------------------------------------------------
  Indices      1         2         3         4         5         6    
-------------------------------------------------------------------------------
       1     31.2273    3.0629   -1.4428    0.0000    0.0000    0.0000
       2      3.0629   31.2273   -1.4428    0.0000    0.0000    0.0000
       3     -1.4428   -1.4428  100.6374    0.0000    0.0000    0.0000
       4      0.0000    0.0000    0.0000    0.5447    0.0000    0.0000
       5      0.0000    0.0000    0.0000    0.0000    0.5447    0.0000
       6      0.0000    0.0000    0.0000    0.0000    0.0000   -0.1520
-------------------------------------------------------------------------------


  Elastic Compliance Matrix: (Units=1/GPa)

-------------------------------------------------------------------------------
  Indices      1         2         3         4         5         6    
-------------------------------------------------------------------------------
       1    0.032352 -0.003154  0.000419  0.000000  0.000000  0.000000
       2   -0.003154  0.032352  0.000419  0.000000  0.000000  0.000000
       3    0.000419  0.000419  0.009949  0.000000  0.000000  0.000000
       4    0.000000  0.000000  0.000000  1.835747  0.000000  0.000000
       5    0.000000  0.000000  0.000000  0.000000  1.835747  0.000000
       6    0.000000  0.000000  0.000000  0.000000  0.000000 -6.577746
-------------------------------------------------------------------------------

  Mechanical properties :

-------------------------------------------------------------------------------
  Convention :                    Reuss         Voigt         Hill
-------------------------------------------------------------------------------
  Bulk  Modulus (GPa)     =      14.28178      18.16073      16.22126
  Shear Modulus (GPa)     =      -1.78340      11.04847       4.63253
-------------------------------------------------------------------------------
  Velocity S-wave (km/s)  =      -0.85211       2.12092       1.37335
  Velocity P-wave (km/s)  =       2.20150       3.65947       3.01979
-------------------------------------------------------------------------------
  Compressibility (1/GPa) =    0.07001928
-------------------------------------------------------------------------------
  Stress axis :                     x             y             z
-------------------------------------------------------------------------------
  Youngs Moduli (GPa)     =      30.91001      30.91001     100.51602
-------------------------------------------------------------------------------
  Poissons Ratio (x)      =                     0.09749      -0.04208
  Poissons Ratio (y)      =       0.09749                    -0.04208
  Poissons Ratio (z)      =      -0.01294      -0.01294
-------------------------------------------------------------------------------


  Piezoelectric Strain Matrix: (Units=C/m**2)

-------------------------------------------------------------------------------
  Indices      1         2         3         4         5         6    
-------------------------------------------------------------------------------
       x     0.00000   0.00000   0.00000   0.00000   0.00000   0.00000
       y     0.00000   0.00000   0.00000   0.00000   0.00000   0.00000
       z     0.00000   0.00000   0.00000   0.00000   0.00000   0.00000
-------------------------------------------------------------------------------


  Piezoelectric Stress Matrix: (Units=10**-11 C/N)

-------------------------------------------------------------------------------
  Indices      1         2         3         4         5         6    
-------------------------------------------------------------------------------
       x     0.00000   0.00000   0.00000   0.00000   0.00000   0.00000
       y     0.00000   0.00000   0.00000   0.00000   0.00000   0.00000
       z     0.00000   0.00000   0.00000   0.00000   0.00000   0.00000
-------------------------------------------------------------------------------


  Static dielectric constant tensor : 

-------------------------------------------------------------------------------
              x         y         z
-------------------------------------------------------------------------------
       x     4.07556   0.00000   0.00000
       y     0.00000   4.07556   0.00000
       z     0.00000   0.00000   1.88442
--------------------------------------------------------------------------------

  High frequency dielectric constant tensor : 

-------------------------------------------------------------------------------
              x         y         z
-------------------------------------------------------------------------------
       x     1.33053   0.00000   0.00000
       y     0.00000   1.33053   0.00000
       z     0.00000   0.00000   1.35973
-------------------------------------------------------------------------------

  Static refractive indices : 

-------------------------------------------------------------------------------
    1 =    1.37274      2 =    2.01880      3 =    2.01880
-------------------------------------------------------------------------------

  High frequency refractive indices : 

-------------------------------------------------------------------------------
    1 =    1.15349      2 =    1.15349      3 =    1.16607
-------------------------------------------------------------------------------


  Time to end of optimisation =       0.0934 seconds


  Peak dynamic memory used =       0.59 MB 


  Timing analysis for GULP :

--------------------------------------------------------------------------------
  Task / Subroutine                                          Time (Seconds)
--------------------------------------------------------------------------------
  Calculation of reciprocal space energy and derivatives          0.0012
  Calculation of reciprocal space energy using symmetry           0.0085
  Calculation of real space energy and derivatives                0.0040
  Calculation of real space energy using symmetry                 0.0753
  Symmetry generation of equivalent positions                     0.0005
--------------------------------------------------------------------------------
  Total CPU time                                                  0.0934
--------------------------------------------------------------------------------


  CIF file written as perov.cif                                               


  Job Finished at 12:49.31 22nd February   2017                               

