********************************************************************************
*                       GENERAL UTILITY LATTICE PROGRAM                        *
*                                 Julian Gale                                  *
*                      Nanochemistry Research Institute                        *
*                           Department of Chemistry                            *
*                    Curtin University, Western Australia                      *
********************************************************************************
* Version = 4.3.2 * Last modified =  3rd March 2015                            *
********************************************************************************
*  optimise     - perform optimisation run                                     *
*  conp         - constant pressure calculation                                *
*  property     - calculate properties for final geometry                      *
********************************************************************************

  Job Started  at 12:49.31 22nd February   2017                               

  Number of CPUs =     1


  Total number of configurations input =   1

********************************************************************************
*  Input for Configuration =   1                                               *
********************************************************************************

  Formula = K2Zn2F6                                                     

  Number of irreducible atoms/shells =       6


  Total number atoms/shells =      16

  Dimensionality = 3               :  Bulk   


  Symmetry :

  Crystal family                   :  Tetragonal  
  Crystal class  (Groth - 1921)    :  Ditetragonal Dipyramidal             

  Space group (centrosymmetric)    :  P 4/M B M       

  Patterson group                  :  P 4/m m m

  Cartesian lattice vectors (Angstroms) :

        4.200000    0.000000    0.000000
        0.000000    4.200000    0.000000
        0.000000    0.000000    4.200000

  Cell parameters (Angstroms/Degrees):

  a =       4.2000    alpha =  90.0000
  b =       4.2000    beta  =  90.0000
  c =       4.2000    gamma =  90.0000

  Initial cell volume =          74.088000 Angs**3

  Temperature of configuration =  0.000     K 

  Pressure of configuration =         0.000 GPa 

  Fractional coordinates of asymmetric unit :

--------------------------------------------------------------------------------
   No.  Atomic       x           y          z         Charge      Occupancy
        Label      (Frac)      (Frac)     (Frac)        (e)         (Frac)  
--------------------------------------------------------------------------------
      1 K     c    0.000000    0.000000    0.000000     0.50000    1.000000    
      2 Zn    c    0.000000    0.500000    0.000000     1.50000    1.000000    
      3 F     c    0.000000    0.500000    0.500000     0.37800    1.000000    
      4 F     c    0.227100 *  0.727100    0.000000     0.37800    1.000000    
      5 F     s    0.000000    0.500000    0.500000    -1.04467    1.000000    
      6 F     s    0.227100 *  0.727100    0.000000    -1.04467    1.000000    
--------------------------------------------------------------------------------


  Constraints : 

--------------------------------------------------------------------------------
  Constraint no.      Unconstrained     Constrained    Coefficient    Offset
                         Variable         Variable
--------------------------------------------------------------------------------
           1              Strain 1        Strain 2       1.00000      0.0000
           2                 4 x             4 y         1.00000      0.5000
           3                 6 x             6 y         1.00000      0.5000
--------------------------------------------------------------------------------


********************************************************************************
*  General input information                                                   *
********************************************************************************

  Species output for all configurations : 

--------------------------------------------------------------------------------
  Species    Type    Atomic    Atomic    Charge       Radii (Angs)     Library
                     Number     Mass       (e)     Cova   Ionic  VDW   Symbol
--------------------------------------------------------------------------------
    K        Core       19      39.10   0.500000   1.330  0.000  2.800          
    Zn       Core       30      65.39   1.500000   1.450  0.000  2.160          
    F        Core        9      19.00   0.378000   0.710  0.000  1.300          
    F        Shell       9       0.00  -1.044667   0.710  0.000  1.300          
--------------------------------------------------------------------------------


  Lattice summation method               =    Ewald          (3-D)
                                         =    Parry          (2-D)
                                         =    Saunders et al (1-D)
  Accuracy factor for lattice sums       =   12.000


  Time limit = Infinity

  Maximum range for interatomic potentials =    100000.000000 Angstroms

  General interatomic potentials :

--------------------------------------------------------------------------------
Atom  Types   Potential         A         B         C         D     Cutoffs(Ang)
  1     2                                                            Min    Max 
--------------------------------------------------------------------------------
K    c K    c Buckingham    0.219E+04 0.192      0.00      0.00     0.000 10.000
Zn   c F    s Buckingham    0.148E+04 0.266      0.00      0.00     0.000 10.000
F    s F    s Buckingham     912.     0.271      13.8      0.00     0.000 10.000
K    c F    s Buckingham    0.352E+04 0.267      0.00      0.00     0.000 10.000
F    c F    s Spring (c-s)   14.0      0.00      0.00      0.00     0.000  0.800
--------------------------------------------------------------------------------

********************************************************************************
*  Output for configuration   1                                                *
********************************************************************************


  Components of energy : 

--------------------------------------------------------------------------------
  Interatomic potentials     =         162.45946484 eV
  Monopole - monopole (real) =         -21.55297066 eV
  Monopole - monopole (recip)=         -31.98759941 eV
  Monopole - monopole (total)=         -53.54057008 eV
--------------------------------------------------------------------------------
  Total lattice energy       =         108.91889477 eV
--------------------------------------------------------------------------------
  Total lattice energy       =           10509.0084 kJ/(mole unit cells)
--------------------------------------------------------------------------------


  Number of variables =        4

  Maximum number of calculations  =          1000
  Maximum Hessian update interval =            10
  Maximum step size               =   1.000000000
  Maximum parameter tolerance     =   0.000010000
  Maximum function  tolerance     =   0.000010000
  Maximum gradient  tolerance     =   0.001000000
  Maximum gradient  component     =   0.010000000

  Symmetry constrained optimisation

  Symmetry used for second derivatives

  Cell parameters to be optimised using strains

  Newton-Raphson optimiser to be used

  BFGS hessian update to be used

  Start of bulk optimisation :

  Cycle:      0 Energy:       108.918895  Gnorm:    221.002924  CPU:    0.007
  ** Hessian calculated **
  Cycle:      1 Energy:       -30.000312  Gnorm:     25.659711  CPU:    0.014
  ** Hessian calculated **
  Cycle:      2 Energy:       -31.498884  Gnorm:      8.923755  CPU:    0.020
  Cycle:      3 Energy:       -31.845398  Gnorm:      1.793940  CPU:    0.024
  Cycle:      4 Energy:       -32.030325  Gnorm:      3.980935  CPU:    0.029
  Cycle:      5 Energy:       -32.039208  Gnorm:      4.689099  CPU:    0.032
  Cycle:      6 Energy:       -32.068968  Gnorm:      3.437397  CPU:    0.036
  Cycle:      7 Energy:       -32.092921  Gnorm:      0.687597  CPU:    0.039
  Cycle:      8 Energy:       -32.095442  Gnorm:      0.041453  CPU:    0.043
  Cycle:      9 Energy:       -32.095568  Gnorm:      0.047046  CPU:    0.046
  Cycle:     10 Energy:       -32.095588  Gnorm:      0.025856  CPU:    0.049
  Cycle:     11 Energy:       -32.095595  Gnorm:      0.004796  CPU:    0.052
  ** Hessian calculated **
  Cycle:     12 Energy:       -32.095596  Gnorm:      0.006586  CPU:    0.057
  Cycle:     13 Energy:       -32.095597  Gnorm:      0.005590  CPU:    0.060
  Cycle:     14 Energy:       -32.095597  Gnorm:      0.001662  CPU:    0.063


  **** Optimisation achieved ****


  Final energy =     -32.09559680 eV
  Final Gnorm  =       0.00091855

  Components of energy : 

--------------------------------------------------------------------------------
  Interatomic potentials     =           4.19908151 eV
  Monopole - monopole (real) =          -5.64518661 eV
  Monopole - monopole (recip)=         -30.64949170 eV
  Monopole - monopole (total)=         -36.29467831 eV
--------------------------------------------------------------------------------
  Total lattice energy       =         -32.09559680 eV
--------------------------------------------------------------------------------
  Total lattice energy       =           -3096.7345 kJ/(mole unit cells)
--------------------------------------------------------------------------------

  Final asymmetric unit coordinates :

--------------------------------------------------------------------------------
   No.  Atomic        x           y           z         Radius
        Label       (Frac)      (Frac)      (Frac)       (Angs) 
--------------------------------------------------------------------------------
     1  K     c     0.000000    0.000000    0.000000    0.000000
     2  Zn    c     0.000000    0.500000    0.000000    0.000000
     3  F     c     0.000000    0.500000    0.500000    0.000000
     4  F     c     0.202837    0.702837    0.000000    0.000000
     5  F     s     0.000000    0.500000    0.500000    0.000000
     6  F     s     0.198188    0.698188    0.000000    0.000000
--------------------------------------------------------------------------------

  Final Cartesian lattice vectors (Angstroms) :

        7.746380    0.000000    0.000000
        0.000000    7.746380    0.000000
        0.000000    0.000000    4.339085


  Final cell parameters and derivatives :

--------------------------------------------------------------------------------
       a            7.746380 Angstrom     dE/de1(xx)     0.002211 eV/strain
       b            7.746380 Angstrom     dE/de2(yy)     0.000000 eV/strain
       c            4.339085 Angstrom     dE/de3(zz)     0.000065 eV/strain
       alpha       90.000000 Degrees      dE/de4(yz)     0.000000 eV/strain
       beta        90.000000 Degrees      dE/de5(xz)     0.000000 eV/strain
       gamma       90.000000 Degrees      dE/de6(xy)     0.000000 eV/strain
--------------------------------------------------------------------------------

  Primitive cell volume =           260.372885 Angs**3

  Density of cell =      2.059851 g/cm**3

  Non-primitive cell volume =           260.372885 Angs**3


  Final internal derivatives :

--------------------------------------------------------------------------------
   No.  Atomic          a             b             c           Radius
        Label          (eV)          (eV)          (eV)        (eV/Angs)
--------------------------------------------------------------------------------
      1 K     c       0.000000      0.000000      0.000000      0.000000
      2 Zn    c       0.000000      0.000000      0.000000      0.000000
      3 F     c       0.000000      0.000000      0.000000      0.000000
      4 F     c       0.000754      0.000000      0.000000      0.000000
      5 F     s       0.000000      0.000000      0.000000      0.000000
      6 F     s       0.002835      0.000000      0.000000      0.000000
--------------------------------------------------------------------------------
  Maximum abs         0.002835      0.000000      0.000000      0.000000
--------------------------------------------------------------------------------


  Born effective charge tensors : 

-------------------------------------------------------------------------------
  Atom             x           y             z
-------------------------------------------------------------------------------
   1 K     x       0.4233     -0.0009      0.0000
           y       0.0009      0.4233      0.0000
           z       0.0000      0.0000      0.4984
-------------------------------------------------------------------------------
   2 Zn    x       1.2601     -0.1503      0.0000
           y      -0.1503      1.2601      0.0000
           z       0.0000      0.0000      1.1773
-------------------------------------------------------------------------------
   3 F     x      -0.5555      0.0053      0.0000
           y       0.0053     -0.5555      0.0000
           z       0.0000      0.0000     -0.4897
-------------------------------------------------------------------------------
   4 F     x      -0.5640     -0.0632      0.0000
           y      -0.0632     -0.5640      0.0000
           z       0.0000      0.0000     -0.5930
-------------------------------------------------------------------------------




  Elastic Constant Matrix: (Units=GPa)

-------------------------------------------------------------------------------
  Indices      1         2         3         4         5         6    
-------------------------------------------------------------------------------
       1     19.4297    3.7833   -0.7157    0.0000    0.0000    0.0000
       2      3.7833   19.4297   -0.7157    0.0000    0.0000    0.0000
       3     -0.7157   -0.7157   49.7998    0.0000    0.0000    0.0000
       4      0.0000    0.0000    0.0000    0.6392    0.0000    0.0000
       5      0.0000    0.0000    0.0000    0.0000    0.6392    0.0000
       6      0.0000    0.0000    0.0000    0.0000    0.0000    1.9541
-------------------------------------------------------------------------------


  Elastic Compliance Matrix: (Units=1/GPa)

-------------------------------------------------------------------------------
  Indices      1         2         3         4         5         6    
-------------------------------------------------------------------------------
       1    0.053515 -0.010398  0.000620  0.000000  0.000000  0.000000
       2   -0.010398  0.053515  0.000620  0.000000  0.000000  0.000000
       3    0.000620  0.000620  0.020098  0.000000  0.000000  0.000000
       4    0.000000  0.000000  0.000000  1.564481  0.000000  0.000000
       5    0.000000  0.000000  0.000000  0.000000  1.564481  0.000000
       6    0.000000  0.000000  0.000000  0.000000  0.000000  0.511734
-------------------------------------------------------------------------------

  Mechanical properties :

-------------------------------------------------------------------------------
  Convention :                    Reuss         Voigt         Hill
-------------------------------------------------------------------------------
  Bulk  Modulus (GPa)     =       9.19019      10.37368       9.78194
  Shear Modulus (GPa)     =       1.30808       6.40033       3.85420
-------------------------------------------------------------------------------
  Velocity S-wave (km/s)  =       0.79689       1.76272       1.36788
  Velocity P-wave (km/s)  =       2.30397       3.02969       2.69141
-------------------------------------------------------------------------------
  Compressibility (1/GPa) =    0.10881168
-------------------------------------------------------------------------------
  Stress axis :                     x             y             z
-------------------------------------------------------------------------------
  Youngs Moduli (GPa)     =      18.68637      18.68637      49.75569
-------------------------------------------------------------------------------
  Poissons Ratio (x)      =                     0.19429      -0.03083
  Poissons Ratio (y)      =       0.19429                    -0.03083
  Poissons Ratio (z)      =      -0.01158      -0.01158
-------------------------------------------------------------------------------


  Piezoelectric Strain Matrix: (Units=C/m**2)

-------------------------------------------------------------------------------
  Indices      1         2         3         4         5         6    
-------------------------------------------------------------------------------
       x     0.00000   0.00000   0.00000   0.00000   0.00000   0.00000
       y     0.00000   0.00000   0.00000   0.00000   0.00000   0.00000
       z     0.00000   0.00000   0.00000   0.00000   0.00000   0.00000
-------------------------------------------------------------------------------


  Piezoelectric Stress Matrix: (Units=10**-11 C/N)

-------------------------------------------------------------------------------
  Indices      1         2         3         4         5         6    
-------------------------------------------------------------------------------
       x     0.00000   0.00000   0.00000   0.00000   0.00000   0.00000
       y     0.00000   0.00000   0.00000   0.00000   0.00000   0.00000
       z     0.00000   0.00000   0.00000   0.00000   0.00000   0.00000
-------------------------------------------------------------------------------


  Static dielectric constant tensor : 

-------------------------------------------------------------------------------
              x         y         z
-------------------------------------------------------------------------------
       x     2.15454   0.00000   0.00000
       y     0.00000   2.15454   0.00000
       z     0.00000   0.00000   1.65887
--------------------------------------------------------------------------------

  High frequency dielectric constant tensor : 

-------------------------------------------------------------------------------
              x         y         z
-------------------------------------------------------------------------------
       x     1.30316   0.00000   0.00000
       y     0.00000   1.30316   0.00000
       z     0.00000   0.00000   1.30715
-------------------------------------------------------------------------------

  Static refractive indices : 

-------------------------------------------------------------------------------
    1 =    1.28797      2 =    1.46784      3 =    1.46784
-------------------------------------------------------------------------------

  High frequency refractive indices : 

-------------------------------------------------------------------------------
    1 =    1.14156      2 =    1.14156      3 =    1.14331
-------------------------------------------------------------------------------


  Time to end of optimisation =       0.0724 seconds


  Peak dynamic memory used =       0.59 MB 


  Timing analysis for GULP :

--------------------------------------------------------------------------------
  Task / Subroutine                                          Time (Seconds)
--------------------------------------------------------------------------------
  Calculation of reciprocal space energy and derivatives          0.0012
  Calculation of reciprocal space energy using symmetry           0.0062
  Calculation of real space energy and derivatives                0.0038
  Calculation of real space energy using symmetry                 0.0539
  Symmetry generation of equivalent positions                     0.0006
--------------------------------------------------------------------------------
  Total CPU time                                                  0.0726
--------------------------------------------------------------------------------


  CIF file written as perov.cif                                               


  Job Finished at 12:49.31 22nd February   2017                               

