********************************************************************************
*                       GENERAL UTILITY LATTICE PROGRAM                        *
*                                 Julian Gale                                  *
*                      Nanochemistry Research Institute                        *
*                           Department of Chemistry                            *
*                    Curtin University, Western Australia                      *
********************************************************************************
* Version = 4.3.2 * Last modified =  3rd March 2015                            *
********************************************************************************
*  optimise     - perform optimisation run                                     *
*  conp         - constant pressure calculation                                *
*  property     - calculate properties for final geometry                      *
********************************************************************************

  Job Started  at 12:49.37 22nd February   2017                               

  Number of CPUs =     1


  Total number of configurations input =   1

********************************************************************************
*  Input for Configuration =   1                                               *
********************************************************************************

  Formula = K2Zn2F6                                                     

  Number of irreducible atoms/shells =       6


  Total number atoms/shells =      16

  Dimensionality = 3               :  Bulk   


  Symmetry :

  Crystal family                   :  Tetragonal  
  Crystal class  (Groth - 1921)    :  Ditetragonal Dipyramidal             

  Space group (centrosymmetric)    :  P 4/M B M       

  Patterson group                  :  P 4/m m m

  Cartesian lattice vectors (Angstroms) :

        4.200000    0.000000    0.000000
        0.000000    4.200000    0.000000
        0.000000    0.000000    4.200000

  Cell parameters (Angstroms/Degrees):

  a =       4.2000    alpha =  90.0000
  b =       4.2000    beta  =  90.0000
  c =       4.2000    gamma =  90.0000

  Initial cell volume =          74.088000 Angs**3

  Temperature of configuration =  0.000     K 

  Pressure of configuration =         0.000 GPa 

  Fractional coordinates of asymmetric unit :

--------------------------------------------------------------------------------
   No.  Atomic       x           y          z         Charge      Occupancy
        Label      (Frac)      (Frac)     (Frac)        (e)         (Frac)  
--------------------------------------------------------------------------------
      1 K     c    0.000000    0.000000    0.000000     1.30000    1.000000    
      2 Zn    c    0.000000    0.500000    0.000000     1.70000    1.000000    
      3 F     c    0.000000    0.500000    0.500000     0.37800    1.000000    
      4 F     c    0.227100 *  0.727100    0.000000     0.37800    1.000000    
      5 F     s    0.000000    0.500000    0.500000    -1.37800    1.000000    
      6 F     s    0.227100 *  0.727100    0.000000    -1.37800    1.000000    
--------------------------------------------------------------------------------


  Constraints : 

--------------------------------------------------------------------------------
  Constraint no.      Unconstrained     Constrained    Coefficient    Offset
                         Variable         Variable
--------------------------------------------------------------------------------
           1              Strain 1        Strain 2       1.00000      0.0000
           2                 4 x             4 y         1.00000      0.5000
           3                 6 x             6 y         1.00000      0.5000
--------------------------------------------------------------------------------


********************************************************************************
*  General input information                                                   *
********************************************************************************

  Species output for all configurations : 

--------------------------------------------------------------------------------
  Species    Type    Atomic    Atomic    Charge       Radii (Angs)     Library
                     Number     Mass       (e)     Cova   Ionic  VDW   Symbol
--------------------------------------------------------------------------------
    K        Core       19      39.10   1.300000   1.330  0.000  2.800          
    Zn       Core       30      65.39   1.700000   1.450  0.000  2.160          
    F        Core        9      19.00   0.378000   0.710  0.000  1.300          
    F        Shell       9       0.00  -1.378000   0.710  0.000  1.300          
--------------------------------------------------------------------------------


  Lattice summation method               =    Ewald          (3-D)
                                         =    Parry          (2-D)
                                         =    Saunders et al (1-D)
  Accuracy factor for lattice sums       =   12.000


  Time limit = Infinity

  Maximum range for interatomic potentials =    100000.000000 Angstroms

  General interatomic potentials :

--------------------------------------------------------------------------------
Atom  Types   Potential         A         B         C         D     Cutoffs(Ang)
  1     2                                                            Min    Max 
--------------------------------------------------------------------------------
K    c K    c Buckingham    0.219E+04 0.192      0.00      0.00     0.000 10.000
Zn   c F    s Buckingham    0.148E+04 0.266      0.00      0.00     0.000 10.000
F    s F    s Buckingham     912.     0.271      13.8      0.00     0.000 10.000
K    c F    s Buckingham    0.352E+04 0.267      0.00      0.00     0.000 10.000
F    c F    s Spring (c-s)   24.3      0.00      0.00      0.00     0.000  0.800
--------------------------------------------------------------------------------

********************************************************************************
*  Output for configuration   1                                                *
********************************************************************************


  Components of energy : 

--------------------------------------------------------------------------------
  Interatomic potentials     =         162.45946484 eV
  Monopole - monopole (real) =         -44.40116354 eV
  Monopole - monopole (recip)=         -62.99181185 eV
  Monopole - monopole (total)=        -107.39297539 eV
--------------------------------------------------------------------------------
  Total lattice energy       =          55.06648945 eV
--------------------------------------------------------------------------------
  Total lattice energy       =            5313.0745 kJ/(mole unit cells)
--------------------------------------------------------------------------------


  Number of variables =        4

  Maximum number of calculations  =          1000
  Maximum Hessian update interval =            10
  Maximum step size               =   1.000000000
  Maximum parameter tolerance     =   0.000010000
  Maximum function  tolerance     =   0.000010000
  Maximum gradient  tolerance     =   0.001000000
  Maximum gradient  component     =   0.010000000

  Symmetry constrained optimisation

  Symmetry used for second derivatives

  Cell parameters to be optimised using strains

  Newton-Raphson optimiser to be used

  BFGS hessian update to be used

  Start of bulk optimisation :

  Cycle:      0 Energy:        55.066489  Gnorm:    209.518025  CPU:    0.005
  ** Hessian calculated **
  Cycle:      1 Energy:       -67.597947  Gnorm:     23.260088  CPU:    0.012
  ** Hessian calculated **
  Cycle:      2 Energy:       -68.181836  Gnorm:      5.458906  CPU:    0.018
  Cycle:      3 Energy:       -68.236546  Gnorm:      0.184657  CPU:    0.021
  Cycle:      4 Energy:       -68.236589  Gnorm:      0.081469  CPU:    0.024
  Cycle:      5 Energy:       -68.236736  Gnorm:      0.049445  CPU:    0.030
  Cycle:      6 Energy:       -68.236813  Gnorm:      0.043159  CPU:    0.034
  Cycle:      7 Energy:       -68.236816  Gnorm:      0.001104  CPU:    0.037
  Cycle:      8 Energy:       -68.236816  Gnorm:      0.002163  CPU:    0.040


  **** Optimisation achieved ****


  Final energy =     -68.23681621 eV
  Final Gnorm  =       0.00009523

  Components of energy : 

--------------------------------------------------------------------------------
  Interatomic potentials     =           9.08645049 eV
  Monopole - monopole (real) =         -15.26189856 eV
  Monopole - monopole (recip)=         -62.06136814 eV
  Monopole - monopole (total)=         -77.32326670 eV
--------------------------------------------------------------------------------
  Total lattice energy       =         -68.23681621 eV
--------------------------------------------------------------------------------
  Total lattice energy       =           -6583.8097 kJ/(mole unit cells)
--------------------------------------------------------------------------------

  Final asymmetric unit coordinates :

--------------------------------------------------------------------------------
   No.  Atomic        x           y           z         Radius
        Label       (Frac)      (Frac)      (Frac)       (Angs) 
--------------------------------------------------------------------------------
     1  K     c     0.000000    0.000000    0.000000    0.000000
     2  Zn    c     0.000000    0.500000    0.000000    0.000000
     3  F     c     0.000000    0.500000    0.500000    0.000000
     4  F     c     0.241758    0.741758    0.000000    0.000000
     5  F     s     0.000000    0.500000    0.500000    0.000000
     6  F     s     0.241167    0.741167    0.000000    0.000000
--------------------------------------------------------------------------------

  Final Cartesian lattice vectors (Angstroms) :

        6.679889    0.000000    0.000000
        0.000000    6.679889    0.000000
        0.000000    0.000000    3.968645


  Final cell parameters and derivatives :

--------------------------------------------------------------------------------
       a            6.679889 Angstrom     dE/de1(xx)     0.000012 eV/strain
       b            6.679889 Angstrom     dE/de2(yy)     0.000000 eV/strain
       c            3.968645 Angstrom     dE/de3(zz)    -0.000034 eV/strain
       alpha       90.000000 Degrees      dE/de4(yz)     0.000000 eV/strain
       beta        90.000000 Degrees      dE/de5(xz)     0.000000 eV/strain
       gamma       90.000000 Degrees      dE/de6(xy)     0.000000 eV/strain
--------------------------------------------------------------------------------

  Primitive cell volume =           177.084604 Angs**3

  Density of cell =      3.028662 g/cm**3

  Non-primitive cell volume =           177.084604 Angs**3


  Final internal derivatives :

--------------------------------------------------------------------------------
   No.  Atomic          a             b             c           Radius
        Label          (eV)          (eV)          (eV)        (eV/Angs)
--------------------------------------------------------------------------------
      1 K     c       0.000000      0.000000      0.000000      0.000000
      2 Zn    c       0.000000      0.000000      0.000000      0.000000
      3 F     c       0.000000      0.000000      0.000000      0.000000
      4 F     c       0.000303      0.000000      0.000000      0.000000
      5 F     s       0.000000      0.000000      0.000000      0.000000
      6 F     s      -0.000228      0.000000      0.000000      0.000000
--------------------------------------------------------------------------------
  Maximum abs         0.000303      0.000000      0.000000      0.000000
--------------------------------------------------------------------------------


  Born effective charge tensors : 

-------------------------------------------------------------------------------
  Atom             x           y             z
-------------------------------------------------------------------------------
   1 K     x       1.0540     -0.0016      0.0000
           y       0.0016      1.0540      0.0000
           z       0.0000      0.0000      1.2791
-------------------------------------------------------------------------------
   2 Zn    x       1.7226     -0.0378      0.0000
           y      -0.0378      1.7226      0.0000
           z       0.0000      0.0000      1.1789
-------------------------------------------------------------------------------
   3 F     x      -0.9349      0.0026      0.0000
           y       0.0026     -0.9349      0.0000
           z       0.0000      0.0000     -0.7419
-------------------------------------------------------------------------------
   4 F     x      -0.9208     -0.2694      0.0000
           y      -0.2694     -0.9208      0.0000
           z       0.0000      0.0000     -0.8581
-------------------------------------------------------------------------------




  Elastic Constant Matrix: (Units=GPa)

-------------------------------------------------------------------------------
  Indices      1         2         3         4         5         6    
-------------------------------------------------------------------------------
       1    101.1735   29.6951   -3.3258    0.0000    0.0000    0.0000
       2     29.6951  101.1735   -3.3258    0.0000    0.0000    0.0000
       3     -3.3258   -3.3258  118.0148    0.0000    0.0000    0.0000
       4      0.0000    0.0000    0.0000    4.3441    0.0000    0.0000
       5      0.0000    0.0000    0.0000    0.0000    4.3441    0.0000
       6      0.0000    0.0000    0.0000    0.0000    0.0000   42.0509
-------------------------------------------------------------------------------


  Elastic Compliance Matrix: (Units=1/GPa)

-------------------------------------------------------------------------------
  Indices      1         2         3         4         5         6    
-------------------------------------------------------------------------------
       1    0.010821 -0.003169  0.000216  0.000000  0.000000  0.000000
       2   -0.003169  0.010821  0.000216  0.000000  0.000000  0.000000
       3    0.000216  0.000216  0.008486  0.000000  0.000000  0.000000
       4    0.000000  0.000000  0.000000  0.230198  0.000000  0.000000
       5    0.000000  0.000000  0.000000  0.000000  0.230198  0.000000
       6    0.000000  0.000000  0.000000  0.000000  0.000000  0.023781
-------------------------------------------------------------------------------

  Mechanical properties :

-------------------------------------------------------------------------------
  Convention :                    Reuss         Voigt         Hill
-------------------------------------------------------------------------------
  Bulk  Modulus (GPa)     =      40.56355      40.71656      40.64006
  Shear Modulus (GPa)     =       9.46972      29.96903      19.71938
-------------------------------------------------------------------------------
  Velocity S-wave (km/s)  =       1.76825       3.14565       2.55165
  Velocity P-wave (km/s)  =       4.19072       5.16113       4.70103
-------------------------------------------------------------------------------
  Compressibility (1/GPa) =    0.02465267
-------------------------------------------------------------------------------
  Stress axis :                     x             y             z
-------------------------------------------------------------------------------
  Youngs Moduli (GPa)     =      92.41098      92.41098     117.84574
-------------------------------------------------------------------------------
  Poissons Ratio (x)      =                     0.29285      -0.02541
  Poissons Ratio (y)      =       0.29285                    -0.02541
  Poissons Ratio (z)      =      -0.01993      -0.01993
-------------------------------------------------------------------------------


  Piezoelectric Strain Matrix: (Units=C/m**2)

-------------------------------------------------------------------------------
  Indices      1         2         3         4         5         6    
-------------------------------------------------------------------------------
       x     0.00000   0.00000   0.00000   0.00000   0.00000   0.00000
       y     0.00000   0.00000   0.00000   0.00000   0.00000   0.00000
       z     0.00000   0.00000   0.00000   0.00000   0.00000   0.00000
-------------------------------------------------------------------------------


  Piezoelectric Stress Matrix: (Units=10**-11 C/N)

-------------------------------------------------------------------------------
  Indices      1         2         3         4         5         6    
-------------------------------------------------------------------------------
       x     0.00000   0.00000   0.00000   0.00000   0.00000   0.00000
       y     0.00000   0.00000   0.00000   0.00000   0.00000   0.00000
       z     0.00000   0.00000   0.00000   0.00000   0.00000   0.00000
-------------------------------------------------------------------------------


  Static dielectric constant tensor : 

-------------------------------------------------------------------------------
              x         y         z
-------------------------------------------------------------------------------
       x    -5.77406   0.00000   0.00000
       y     0.00000  -5.77406   0.00000
       z     0.00000   0.00000   0.63145
--------------------------------------------------------------------------------

  High frequency dielectric constant tensor : 

-------------------------------------------------------------------------------
              x         y         z
-------------------------------------------------------------------------------
       x     1.47450   0.00000   0.00000
       y     0.00000   1.47450   0.00000
       z     0.00000   0.00000   1.43578
-------------------------------------------------------------------------------

  Static refractive indices : 

-------------------------------------------------------------------------------
    1 =   -2.40293      2 =   -2.40293      3 =    0.79464
-------------------------------------------------------------------------------

  High frequency refractive indices : 

-------------------------------------------------------------------------------
    1 =    1.19824      2 =    1.21429      3 =    1.21429
-------------------------------------------------------------------------------


  Time to end of optimisation =       0.0483 seconds


  Peak dynamic memory used =       0.59 MB 


  Timing analysis for GULP :

--------------------------------------------------------------------------------
  Task / Subroutine                                          Time (Seconds)
--------------------------------------------------------------------------------
  Calculation of reciprocal space energy and derivatives          0.0008
  Calculation of reciprocal space energy using symmetry           0.0038
  Calculation of real space energy and derivatives                0.0038
  Calculation of real space energy using symmetry                 0.0361
  Symmetry generation of equivalent positions                     0.0004
--------------------------------------------------------------------------------
  Total CPU time                                                  0.0484
--------------------------------------------------------------------------------


  CIF file written as perov.cif                                               


  Job Finished at 12:49.37 22nd February   2017                               

