********************************************************************************
*                       GENERAL UTILITY LATTICE PROGRAM                        *
*                                 Julian Gale                                  *
*                      Nanochemistry Research Institute                        *
*                           Department of Chemistry                            *
*                    Curtin University, Western Australia                      *
********************************************************************************
* Version = 4.3.2 * Last modified =  3rd March 2015                            *
********************************************************************************
*  optimise     - perform optimisation run                                     *
*  conp         - constant pressure calculation                                *
*  property     - calculate properties for final geometry                      *
********************************************************************************

  Job Started  at 12:49.31 22nd February   2017                               

  Number of CPUs =     1


  Total number of configurations input =   1

********************************************************************************
*  Input for Configuration =   1                                               *
********************************************************************************

  Formula = K2Zn2F6                                                     

  Number of irreducible atoms/shells =       6


  Total number atoms/shells =      16

  Dimensionality = 3               :  Bulk   


  Symmetry :

  Crystal family                   :  Tetragonal  
  Crystal class  (Groth - 1921)    :  Ditetragonal Dipyramidal             

  Space group (centrosymmetric)    :  P 4/M B M       

  Patterson group                  :  P 4/m m m

  Cartesian lattice vectors (Angstroms) :

        4.200000    0.000000    0.000000
        0.000000    4.200000    0.000000
        0.000000    0.000000    4.200000

  Cell parameters (Angstroms/Degrees):

  a =       4.2000    alpha =  90.0000
  b =       4.2000    beta  =  90.0000
  c =       4.2000    gamma =  90.0000

  Initial cell volume =          74.088000 Angs**3

  Temperature of configuration =  0.000     K 

  Pressure of configuration =         0.000 GPa 

  Fractional coordinates of asymmetric unit :

--------------------------------------------------------------------------------
   No.  Atomic       x           y          z         Charge      Occupancy
        Label      (Frac)      (Frac)     (Frac)        (e)         (Frac)  
--------------------------------------------------------------------------------
      1 K     c    0.000000    0.000000    0.000000     0.50000    1.000000    
      2 Zn    c    0.000000    0.500000    0.000000     1.80000    1.000000    
      3 F     c    0.000000    0.500000    0.500000     0.37800    1.000000    
      4 F     c    0.227100 *  0.727100    0.000000     0.37800    1.000000    
      5 F     s    0.000000    0.500000    0.500000    -1.14467    1.000000    
      6 F     s    0.227100 *  0.727100    0.000000    -1.14467    1.000000    
--------------------------------------------------------------------------------


  Constraints : 

--------------------------------------------------------------------------------
  Constraint no.      Unconstrained     Constrained    Coefficient    Offset
                         Variable         Variable
--------------------------------------------------------------------------------
           1              Strain 1        Strain 2       1.00000      0.0000
           2                 4 x             4 y         1.00000      0.5000
           3                 6 x             6 y         1.00000      0.5000
--------------------------------------------------------------------------------


********************************************************************************
*  General input information                                                   *
********************************************************************************

  Species output for all configurations : 

--------------------------------------------------------------------------------
  Species    Type    Atomic    Atomic    Charge       Radii (Angs)     Library
                     Number     Mass       (e)     Cova   Ionic  VDW   Symbol
--------------------------------------------------------------------------------
    K        Core       19      39.10   0.500000   1.330  0.000  2.800          
    Zn       Core       30      65.39   1.800000   1.450  0.000  2.160          
    F        Core        9      19.00   0.378000   0.710  0.000  1.300          
    F        Shell       9       0.00  -1.144667   0.710  0.000  1.300          
--------------------------------------------------------------------------------


  Lattice summation method               =    Ewald          (3-D)
                                         =    Parry          (2-D)
                                         =    Saunders et al (1-D)
  Accuracy factor for lattice sums       =   12.000


  Time limit = Infinity

  Maximum range for interatomic potentials =    100000.000000 Angstroms

  General interatomic potentials :

--------------------------------------------------------------------------------
Atom  Types   Potential         A         B         C         D     Cutoffs(Ang)
  1     2                                                            Min    Max 
--------------------------------------------------------------------------------
K    c K    c Buckingham    0.219E+04 0.192      0.00      0.00     0.000 10.000
Zn   c F    s Buckingham    0.148E+04 0.266      0.00      0.00     0.000 10.000
F    s F    s Buckingham     912.     0.271      13.8      0.00     0.000 10.000
K    c F    s Buckingham    0.352E+04 0.267      0.00      0.00     0.000 10.000
F    c F    s Spring (c-s)   16.8      0.00      0.00      0.00     0.000  0.800
--------------------------------------------------------------------------------

********************************************************************************
*  Output for configuration   1                                                *
********************************************************************************


  Components of energy : 

--------------------------------------------------------------------------------
  Interatomic potentials     =         162.45946484 eV
  Monopole - monopole (real) =         -29.12729353 eV
  Monopole - monopole (recip)=         -43.87136319 eV
  Monopole - monopole (total)=         -72.99865673 eV
--------------------------------------------------------------------------------
  Total lattice energy       =          89.46080812 eV
--------------------------------------------------------------------------------
  Total lattice energy       =            8631.6004 kJ/(mole unit cells)
--------------------------------------------------------------------------------


  Number of variables =        4

  Maximum number of calculations  =          1000
  Maximum Hessian update interval =            10
  Maximum step size               =   1.000000000
  Maximum parameter tolerance     =   0.000010000
  Maximum function  tolerance     =   0.000010000
  Maximum gradient  tolerance     =   0.001000000
  Maximum gradient  component     =   0.010000000

  Symmetry constrained optimisation

  Symmetry used for second derivatives

  Cell parameters to be optimised using strains

  Newton-Raphson optimiser to be used

  BFGS hessian update to be used

  Start of bulk optimisation :

  Cycle:      0 Energy:        89.460808  Gnorm:    215.692845  CPU:    0.005
  ** Hessian calculated **
  Cycle:      1 Energy:       -43.591323  Gnorm:     29.768692  CPU:    0.012
  ** Hessian calculated **
  Cycle:      2 Energy:       -44.948580  Gnorm:      8.230266  CPU:    0.017
  Cycle:      3 Energy:       -45.545978  Gnorm:      9.306328  CPU:    0.022
  ** Hessian calculated **
  Cycle:      4 Energy:       -45.716845  Gnorm:      5.548810  CPU:    0.027
  Cycle:      5 Energy:       -45.759087  Gnorm:      1.490340  CPU:    0.031
  Cycle:      6 Energy:       -45.773086  Gnorm:      2.860188  CPU:    0.034
  Cycle:      7 Energy:       -45.780253  Gnorm:      0.336542  CPU:    0.037
  Cycle:      8 Energy:       -45.780573  Gnorm:      0.245784  CPU:    0.040
  Cycle:      9 Energy:       -45.780978  Gnorm:      0.098688  CPU:    0.044
  Cycle:     10 Energy:       -45.780989  Gnorm:      0.033217  CPU:    0.047
  Cycle:     11 Energy:       -45.780992  Gnorm:      0.036235  CPU:    0.050
  Cycle:     12 Energy:       -45.780995  Gnorm:      0.010450  CPU:    0.053
  Cycle:     13 Energy:       -45.780995  Gnorm:      0.008437  CPU:    0.056
  ** Hessian calculated **


  **** Optimisation achieved ****


  Final energy =     -45.78099536 eV
  Final Gnorm  =       0.00057810

  Components of energy : 

--------------------------------------------------------------------------------
  Interatomic potentials     =           6.52811135 eV
  Monopole - monopole (real) =         -11.53632281 eV
  Monopole - monopole (recip)=         -40.77278390 eV
  Monopole - monopole (total)=         -52.30910672 eV
--------------------------------------------------------------------------------
  Total lattice energy       =         -45.78099536 eV
--------------------------------------------------------------------------------
  Total lattice energy       =           -4417.1662 kJ/(mole unit cells)
--------------------------------------------------------------------------------

  Final asymmetric unit coordinates :

--------------------------------------------------------------------------------
   No.  Atomic        x           y           z         Radius
        Label       (Frac)      (Frac)      (Frac)       (Angs) 
--------------------------------------------------------------------------------
     1  K     c     0.000000    0.000000    0.000000    0.000000
     2  Zn    c     0.000000    0.500000    0.000000    0.000000
     3  F     c     0.000000    0.500000    0.500000    0.000000
     4  F     c     0.194600    0.694600    0.000000    0.000000
     5  F     s     0.000000    0.500000    0.500000    0.000000
     6  F     s     0.188524    0.688524    0.000000    0.000000
--------------------------------------------------------------------------------

  Final Cartesian lattice vectors (Angstroms) :

        7.588260    0.000000    0.000000
        0.000000    7.588260    0.000000
        0.000000    0.000000    4.121953


  Final cell parameters and derivatives :

--------------------------------------------------------------------------------
       a            7.588260 Angstrom     dE/de1(xx)    -0.000975 eV/strain
       b            7.588260 Angstrom     dE/de2(yy)     0.000000 eV/strain
       c            4.121953 Angstrom     dE/de3(zz)    -0.000115 eV/strain
       alpha       90.000000 Degrees      dE/de4(yz)     0.000000 eV/strain
       beta        90.000000 Degrees      dE/de5(xz)     0.000000 eV/strain
       gamma       90.000000 Degrees      dE/de6(xy)     0.000000 eV/strain
--------------------------------------------------------------------------------

  Primitive cell volume =           237.349048 Angs**3

  Density of cell =      2.259665 g/cm**3

  Non-primitive cell volume =           237.349048 Angs**3


  Final internal derivatives :

--------------------------------------------------------------------------------
   No.  Atomic          a             b             c           Radius
        Label          (eV)          (eV)          (eV)        (eV/Angs)
--------------------------------------------------------------------------------
      1 K     c       0.000000      0.000000      0.000000      0.000000
      2 Zn    c       0.000000      0.000000      0.000000      0.000000
      3 F     c       0.000000      0.000000      0.000000      0.000000
      4 F     c      -0.001904      0.000000      0.000000      0.000000
      5 F     s       0.000000      0.000000      0.000000      0.000000
      6 F     s       0.000871      0.000000      0.000000      0.000000
--------------------------------------------------------------------------------
  Maximum abs         0.001904      0.000000      0.000000      0.000000
--------------------------------------------------------------------------------


  Born effective charge tensors : 

-------------------------------------------------------------------------------
  Atom             x           y             z
-------------------------------------------------------------------------------
   1 K     x       0.4252     -0.0004      0.0000
           y       0.0004      0.4252      0.0000
           z       0.0000      0.0000      0.5014
-------------------------------------------------------------------------------
   2 Zn    x       1.4025     -0.2241      0.0000
           y      -0.2241      1.4025      0.0000
           z       0.0000      0.0000      1.3981
-------------------------------------------------------------------------------
   3 F     x      -0.6065      0.0073      0.0000
           y       0.0073     -0.6065      0.0000
           z       0.0000      0.0000     -0.5450
-------------------------------------------------------------------------------
   4 F     x      -0.6106     -0.0387      0.0000
           y      -0.0387     -0.6106      0.0000
           z       0.0000      0.0000     -0.6772
-------------------------------------------------------------------------------




  Elastic Constant Matrix: (Units=GPa)

-------------------------------------------------------------------------------
  Indices      1         2         3         4         5         6    
-------------------------------------------------------------------------------
       1     25.0455    3.5794   -1.0349    0.0000    0.0000    0.0000
       2      3.5794   25.0455   -1.0349    0.0000    0.0000    0.0000
       3     -1.0349   -1.0349   72.7310    0.0000    0.0000    0.0000
       4      0.0000    0.0000    0.0000    0.6577    0.0000    0.0000
       5      0.0000    0.0000    0.0000    0.0000    0.6577    0.0000
       6      0.0000    0.0000    0.0000    0.0000    0.0000    0.9208
-------------------------------------------------------------------------------


  Elastic Compliance Matrix: (Units=1/GPa)

-------------------------------------------------------------------------------
  Indices      1         2         3         4         5         6    
-------------------------------------------------------------------------------
       1    0.040778 -0.005807  0.000498  0.000000  0.000000  0.000000
       2   -0.005807  0.040778  0.000498  0.000000  0.000000  0.000000
       3    0.000498  0.000498  0.013763  0.000000  0.000000  0.000000
       4    0.000000  0.000000  0.000000  1.520501  0.000000  0.000000
       5    0.000000  0.000000  0.000000  0.000000  1.520501  0.000000
       6    0.000000  0.000000  0.000000  0.000000  0.000000  1.085974
-------------------------------------------------------------------------------

  Mechanical properties :

-------------------------------------------------------------------------------
  Convention :                    Reuss         Voigt         Hill
-------------------------------------------------------------------------------
  Bulk  Modulus (GPa)     =      11.66928      13.98235      12.82581
  Shear Modulus (GPa)     =       1.17358       8.53474       4.85416
-------------------------------------------------------------------------------
  Velocity S-wave (km/s)  =       0.72066       1.94345       1.46567
  Velocity P-wave (km/s)  =       2.42005       3.35019       2.92236
-------------------------------------------------------------------------------
  Compressibility (1/GPa) =    0.08569508
-------------------------------------------------------------------------------
  Stress axis :                     x             y             z
-------------------------------------------------------------------------------
  Youngs Moduli (GPa)     =      24.52311      24.52311      72.65620
-------------------------------------------------------------------------------
  Poissons Ratio (x)      =                     0.14241      -0.03616
  Poissons Ratio (y)      =       0.14241                    -0.03616
  Poissons Ratio (z)      =      -0.01220      -0.01220
-------------------------------------------------------------------------------


  Piezoelectric Strain Matrix: (Units=C/m**2)

-------------------------------------------------------------------------------
  Indices      1         2         3         4         5         6    
-------------------------------------------------------------------------------
       x     0.00000   0.00000   0.00000   0.00000   0.00000   0.00000
       y     0.00000   0.00000   0.00000   0.00000   0.00000   0.00000
       z     0.00000   0.00000   0.00000   0.00000   0.00000   0.00000
-------------------------------------------------------------------------------


  Piezoelectric Stress Matrix: (Units=10**-11 C/N)

-------------------------------------------------------------------------------
  Indices      1         2         3         4         5         6    
-------------------------------------------------------------------------------
       x     0.00000   0.00000   0.00000   0.00000   0.00000   0.00000
       y     0.00000   0.00000   0.00000   0.00000   0.00000   0.00000
       z     0.00000   0.00000   0.00000   0.00000   0.00000   0.00000
-------------------------------------------------------------------------------


  Static dielectric constant tensor : 

-------------------------------------------------------------------------------
              x         y         z
-------------------------------------------------------------------------------
       x     2.54049   0.00000   0.00000
       y     0.00000   2.54049   0.00000
       z     0.00000   0.00000   1.78942
--------------------------------------------------------------------------------

  High frequency dielectric constant tensor : 

-------------------------------------------------------------------------------
              x         y         z
-------------------------------------------------------------------------------
       x     1.31828   0.00000   0.00000
       y     0.00000   1.31828   0.00000
       z     0.00000   0.00000   1.33338
-------------------------------------------------------------------------------

  Static refractive indices : 

-------------------------------------------------------------------------------
    1 =    1.33769      2 =    1.59389      3 =    1.59389
-------------------------------------------------------------------------------

  High frequency refractive indices : 

-------------------------------------------------------------------------------
    1 =    1.14816      2 =    1.14816      3 =    1.15472
-------------------------------------------------------------------------------


  Time to end of optimisation =       0.0665 seconds


  Peak dynamic memory used =       0.59 MB 


  Timing analysis for GULP :

--------------------------------------------------------------------------------
  Task / Subroutine                                          Time (Seconds)
--------------------------------------------------------------------------------
  Calculation of reciprocal space energy and derivatives          0.0010
  Calculation of reciprocal space energy using symmetry           0.0060
  Calculation of real space energy and derivatives                0.0037
  Calculation of real space energy using symmetry                 0.0519
  Symmetry generation of equivalent positions                     0.0005
--------------------------------------------------------------------------------
  Total CPU time                                                  0.0666
--------------------------------------------------------------------------------


  CIF file written as perov.cif                                               


  Job Finished at 12:49.31 22nd February   2017                               

