********************************************************************************
*                       GENERAL UTILITY LATTICE PROGRAM                        *
*                                 Julian Gale                                  *
*                      Nanochemistry Research Institute                        *
*                           Department of Chemistry                            *
*                    Curtin University, Western Australia                      *
********************************************************************************
* Version = 4.3.2 * Last modified =  3rd March 2015                            *
********************************************************************************
*  optimise     - perform optimisation run                                     *
*  conp         - constant pressure calculation                                *
*  property     - calculate properties for final geometry                      *
********************************************************************************

  Job Started  at 12:49.34 22nd February   2017                               

  Number of CPUs =     1


  Total number of configurations input =   1

********************************************************************************
*  Input for Configuration =   1                                               *
********************************************************************************

  Formula = K2Zn2F6                                                     

  Number of irreducible atoms/shells =       6


  Total number atoms/shells =      16

  Dimensionality = 3               :  Bulk   


  Symmetry :

  Crystal family                   :  Tetragonal  
  Crystal class  (Groth - 1921)    :  Ditetragonal Dipyramidal             

  Space group (centrosymmetric)    :  P 4/M B M       

  Patterson group                  :  P 4/m m m

  Cartesian lattice vectors (Angstroms) :

        4.200000    0.000000    0.000000
        0.000000    4.200000    0.000000
        0.000000    0.000000    4.200000

  Cell parameters (Angstroms/Degrees):

  a =       4.2000    alpha =  90.0000
  b =       4.2000    beta  =  90.0000
  c =       4.2000    gamma =  90.0000

  Initial cell volume =          74.088000 Angs**3

  Temperature of configuration =  0.000     K 

  Pressure of configuration =         0.000 GPa 

  Fractional coordinates of asymmetric unit :

--------------------------------------------------------------------------------
   No.  Atomic       x           y          z         Charge      Occupancy
        Label      (Frac)      (Frac)     (Frac)        (e)         (Frac)  
--------------------------------------------------------------------------------
      1 K     c    0.000000    0.000000    0.000000     0.90000    1.000000    
      2 Zn    c    0.000000    0.500000    0.000000     1.80000    1.000000    
      3 F     c    0.000000    0.500000    0.500000     0.37800    1.000000    
      4 F     c    0.227100 *  0.727100    0.000000     0.37800    1.000000    
      5 F     s    0.000000    0.500000    0.500000    -1.27800    1.000000    
      6 F     s    0.227100 *  0.727100    0.000000    -1.27800    1.000000    
--------------------------------------------------------------------------------


  Constraints : 

--------------------------------------------------------------------------------
  Constraint no.      Unconstrained     Constrained    Coefficient    Offset
                         Variable         Variable
--------------------------------------------------------------------------------
           1              Strain 1        Strain 2       1.00000      0.0000
           2                 4 x             4 y         1.00000      0.5000
           3                 6 x             6 y         1.00000      0.5000
--------------------------------------------------------------------------------


********************************************************************************
*  General input information                                                   *
********************************************************************************

  Species output for all configurations : 

--------------------------------------------------------------------------------
  Species    Type    Atomic    Atomic    Charge       Radii (Angs)     Library
                     Number     Mass       (e)     Cova   Ionic  VDW   Symbol
--------------------------------------------------------------------------------
    K        Core       19      39.10   0.900000   1.330  0.000  2.800          
    Zn       Core       30      65.39   1.800000   1.450  0.000  2.160          
    F        Core        9      19.00   0.378000   0.710  0.000  1.300          
    F        Shell       9       0.00  -1.278000   0.710  0.000  1.300          
--------------------------------------------------------------------------------


  Lattice summation method               =    Ewald          (3-D)
                                         =    Parry          (2-D)
                                         =    Saunders et al (1-D)
  Accuracy factor for lattice sums       =   12.000


  Time limit = Infinity

  Maximum range for interatomic potentials =    100000.000000 Angstroms

  General interatomic potentials :

--------------------------------------------------------------------------------
Atom  Types   Potential         A         B         C         D     Cutoffs(Ang)
  1     2                                                            Min    Max 
--------------------------------------------------------------------------------
K    c K    c Buckingham    0.219E+04 0.192      0.00      0.00     0.000 10.000
Zn   c F    s Buckingham    0.148E+04 0.266      0.00      0.00     0.000 10.000
F    s F    s Buckingham     912.     0.271      13.8      0.00     0.000 10.000
K    c F    s Buckingham    0.352E+04 0.267      0.00      0.00     0.000 10.000
F    c F    s Spring (c-s)   20.9      0.00      0.00      0.00     0.000  0.800
--------------------------------------------------------------------------------

********************************************************************************
*  Output for configuration   1                                                *
********************************************************************************


  Components of energy : 

--------------------------------------------------------------------------------
  Interatomic potentials     =         162.45946484 eV
  Monopole - monopole (real) =         -37.45434215 eV
  Monopole - monopole (recip)=         -53.96534176 eV
  Monopole - monopole (total)=         -91.41968390 eV
--------------------------------------------------------------------------------
  Total lattice energy       =          71.03978094 eV
--------------------------------------------------------------------------------
  Total lattice energy       =            6854.2529 kJ/(mole unit cells)
--------------------------------------------------------------------------------


  Number of variables =        4

  Maximum number of calculations  =          1000
  Maximum Hessian update interval =            10
  Maximum step size               =   1.000000000
  Maximum parameter tolerance     =   0.000010000
  Maximum function  tolerance     =   0.000010000
  Maximum gradient  tolerance     =   0.001000000
  Maximum gradient  component     =   0.010000000

  Symmetry constrained optimisation

  Symmetry used for second derivatives

  Cell parameters to be optimised using strains

  Newton-Raphson optimiser to be used

  BFGS hessian update to be used

  Start of bulk optimisation :

  Cycle:      0 Energy:        71.039781  Gnorm:    212.118454  CPU:    0.005
  ** Hessian calculated **
  Cycle:      1 Energy:       -56.715495  Gnorm:     27.998350  CPU:    0.012
  ** Hessian calculated **
  Cycle:      2 Energy:       -57.303552  Gnorm:     12.385945  CPU:    0.018
  ** Hessian calculated **
  Cycle:      3 Energy:       -57.904616  Gnorm:      9.106419  CPU:    0.024
  Cycle:      4 Energy:       -57.990187  Gnorm:      0.929555  CPU:    0.027
  Cycle:      5 Energy:       -57.992592  Gnorm:      0.179481  CPU:    0.031
  Cycle:      6 Energy:       -57.992737  Gnorm:      0.102476  CPU:    0.034
  Cycle:      7 Energy:       -57.992753  Gnorm:      0.005458  CPU:    0.038
  Cycle:      8 Energy:       -57.992754  Gnorm:      0.009278  CPU:    0.041
  Cycle:      9 Energy:       -57.992754  Gnorm:      0.001536  CPU:    0.044


  **** Optimisation achieved ****


  Final energy =     -57.99275450 eV
  Final Gnorm  =       0.00049096

  Components of energy : 

--------------------------------------------------------------------------------
  Interatomic potentials     =           7.98510163 eV
  Monopole - monopole (real) =         -13.97568505 eV
  Monopole - monopole (recip)=         -52.00217108 eV
  Monopole - monopole (total)=         -65.97785613 eV
--------------------------------------------------------------------------------
  Total lattice energy       =         -57.99275450 eV
--------------------------------------------------------------------------------
  Total lattice energy       =           -5595.4143 kJ/(mole unit cells)
--------------------------------------------------------------------------------

  Final asymmetric unit coordinates :

--------------------------------------------------------------------------------
   No.  Atomic        x           y           z         Radius
        Label       (Frac)      (Frac)      (Frac)       (Angs) 
--------------------------------------------------------------------------------
     1  K     c     0.000000    0.000000    0.000000    0.000000
     2  Zn    c     0.000000    0.500000    0.000000    0.000000
     3  F     c     0.000000    0.500000    0.500000    0.000000
     4  F     c     0.290353    0.790353    0.000000    0.000000
     5  F     s     0.000000    0.500000    0.500000    0.000000
     6  F     s     0.294103    0.794103    0.000000    0.000000
--------------------------------------------------------------------------------

  Final Cartesian lattice vectors (Angstroms) :

        7.062688    0.000000    0.000000
        0.000000    7.062688    0.000000
        0.000000    0.000000    4.006826


  Final cell parameters and derivatives :

--------------------------------------------------------------------------------
       a            7.062688 Angstrom     dE/de1(xx)    -0.000640 eV/strain
       b            7.062688 Angstrom     dE/de2(yy)     0.000000 eV/strain
       c            4.006826 Angstrom     dE/de3(zz)    -0.000175 eV/strain
       alpha       90.000000 Degrees      dE/de4(yz)     0.000000 eV/strain
       beta        90.000000 Degrees      dE/de5(xz)     0.000000 eV/strain
       gamma       90.000000 Degrees      dE/de6(xy)     0.000000 eV/strain
--------------------------------------------------------------------------------

  Primitive cell volume =           199.866735 Angs**3

  Density of cell =      2.683435 g/cm**3

  Non-primitive cell volume =           199.866735 Angs**3


  Final internal derivatives :

--------------------------------------------------------------------------------
   No.  Atomic          a             b             c           Radius
        Label          (eV)          (eV)          (eV)        (eV/Angs)
--------------------------------------------------------------------------------
      1 K     c       0.000000      0.000000      0.000000      0.000000
      2 Zn    c       0.000000      0.000000      0.000000      0.000000
      3 F     c       0.000000      0.000000      0.000000      0.000000
      4 F     c      -0.000690      0.000000      0.000000      0.000000
      5 F     s       0.000000      0.000000      0.000000      0.000000
      6 F     s       0.001715      0.000000      0.000000      0.000000
--------------------------------------------------------------------------------
  Maximum abs         0.001715      0.000000      0.000000      0.000000
--------------------------------------------------------------------------------


  Born effective charge tensors : 

-------------------------------------------------------------------------------
  Atom             x           y             z
-------------------------------------------------------------------------------
   1 K     x       0.7599      0.0015      0.0000
           y      -0.0015      0.7599      0.0000
           z       0.0000      0.0000      0.8919
-------------------------------------------------------------------------------
   2 Zn    x       1.5559      0.1798      0.0000
           y       0.1798      1.5559      0.0000
           z       0.0000      0.0000      1.3229
-------------------------------------------------------------------------------
   3 F     x      -0.7708     -0.0082      0.0000
           y      -0.0082     -0.7708      0.0000
           z       0.0000      0.0000     -0.6485
-------------------------------------------------------------------------------
   4 F     x      -0.7725     -0.1349      0.0000
           y      -0.1349     -0.7725      0.0000
           z       0.0000      0.0000     -0.7831
-------------------------------------------------------------------------------




  Elastic Constant Matrix: (Units=GPa)

-------------------------------------------------------------------------------
  Indices      1         2         3         4         5         6    
-------------------------------------------------------------------------------
       1     57.9339   12.4189   -2.1899    0.0000    0.0000    0.0000
       2     12.4189   57.9339   -2.1899    0.0000    0.0000    0.0000
       3     -2.1899   -2.1899   99.2571    0.0000    0.0000    0.0000
       4      0.0000    0.0000    0.0000    1.8104    0.0000    0.0000
       5      0.0000    0.0000    0.0000    0.0000    1.8104    0.0000
       6      0.0000    0.0000    0.0000    0.0000    0.0000   11.3939
-------------------------------------------------------------------------------


  Elastic Compliance Matrix: (Units=1/GPa)

-------------------------------------------------------------------------------
  Indices      1         2         3         4         5         6    
-------------------------------------------------------------------------------
       1    0.018102 -0.003869  0.000314  0.000000  0.000000  0.000000
       2   -0.003869  0.018102  0.000314  0.000000  0.000000  0.000000
       3    0.000314  0.000314  0.010089  0.000000  0.000000  0.000000
       4    0.000000  0.000000  0.000000  0.552378  0.000000  0.000000
       5    0.000000  0.000000  0.000000  0.000000  0.552378  0.000000
       6    0.000000  0.000000  0.000000  0.000000  0.000000  0.087767
-------------------------------------------------------------------------------

  Mechanical properties :

-------------------------------------------------------------------------------
  Convention :                    Reuss         Voigt         Hill
-------------------------------------------------------------------------------
  Bulk  Modulus (GPa)     =      25.11802      25.68926      25.40364
  Shear Modulus (GPa)     =       3.97277      16.80863      10.39070
-------------------------------------------------------------------------------
  Velocity S-wave (km/s)  =       1.21675       2.50277       1.96778
  Velocity P-wave (km/s)  =       3.36666       4.23380       3.82488
-------------------------------------------------------------------------------
  Compressibility (1/GPa) =    0.03981206
-------------------------------------------------------------------------------
  Stress axis :                     x             y             z
-------------------------------------------------------------------------------
  Youngs Moduli (GPa)     =      55.24192      55.24192      99.12075
-------------------------------------------------------------------------------
  Poissons Ratio (x)      =                     0.21371      -0.03113
  Poissons Ratio (y)      =       0.21371                    -0.03113
  Poissons Ratio (z)      =      -0.01735      -0.01735
-------------------------------------------------------------------------------


  Piezoelectric Strain Matrix: (Units=C/m**2)

-------------------------------------------------------------------------------
  Indices      1         2         3         4         5         6    
-------------------------------------------------------------------------------
       x     0.00000   0.00000   0.00000   0.00000   0.00000   0.00000
       y     0.00000   0.00000   0.00000   0.00000   0.00000   0.00000
       z     0.00000   0.00000   0.00000   0.00000   0.00000   0.00000
-------------------------------------------------------------------------------


  Piezoelectric Stress Matrix: (Units=10**-11 C/N)

-------------------------------------------------------------------------------
  Indices      1         2         3         4         5         6    
-------------------------------------------------------------------------------
       x     0.00000   0.00000   0.00000   0.00000   0.00000   0.00000
       y     0.00000   0.00000   0.00000   0.00000   0.00000   0.00000
       z     0.00000   0.00000   0.00000   0.00000   0.00000   0.00000
-------------------------------------------------------------------------------


  Static dielectric constant tensor : 

-------------------------------------------------------------------------------
              x         y         z
-------------------------------------------------------------------------------
       x     2.54857   0.00000   0.00000
       y     0.00000   2.54857   0.00000
       z     0.00000   0.00000   1.10168
--------------------------------------------------------------------------------

  High frequency dielectric constant tensor : 

-------------------------------------------------------------------------------
              x         y         z
-------------------------------------------------------------------------------
       x     1.39713   0.00000   0.00000
       y     0.00000   1.39713   0.00000
       z     0.00000   0.00000   1.39003
-------------------------------------------------------------------------------

  Static refractive indices : 

-------------------------------------------------------------------------------
    1 =    1.04961      2 =    1.59642      3 =    1.59642
-------------------------------------------------------------------------------

  High frequency refractive indices : 

-------------------------------------------------------------------------------
    1 =    1.17899      2 =    1.18200      3 =    1.18200
-------------------------------------------------------------------------------


  Time to end of optimisation =       0.0527 seconds


  Peak dynamic memory used =       0.59 MB 


  Timing analysis for GULP :

--------------------------------------------------------------------------------
  Task / Subroutine                                          Time (Seconds)
--------------------------------------------------------------------------------
  Calculation of reciprocal space energy and derivatives          0.0010
  Calculation of reciprocal space energy using symmetry           0.0045
  Calculation of real space energy and derivatives                0.0038
  Calculation of real space energy using symmetry                 0.0395
  Symmetry generation of equivalent positions                     0.0004
--------------------------------------------------------------------------------
  Total CPU time                                                  0.0527
--------------------------------------------------------------------------------


  CIF file written as perov.cif                                               


  Job Finished at 12:49.34 22nd February   2017                               

