********************************************************************************
*                       GENERAL UTILITY LATTICE PROGRAM                        *
*                                 Julian Gale                                  *
*                      Nanochemistry Research Institute                        *
*                           Department of Chemistry                            *
*                    Curtin University, Western Australia                      *
********************************************************************************
* Version = 4.3.2 * Last modified =  3rd March 2015                            *
********************************************************************************
*  optimise     - perform optimisation run                                     *
*  conp         - constant pressure calculation                                *
*  property     - calculate properties for final geometry                      *
********************************************************************************

  Job Started  at 12:49.38 22nd February   2017                               

  Number of CPUs =     1


  Total number of configurations input =   1

********************************************************************************
*  Input for Configuration =   1                                               *
********************************************************************************

  Formula = K2Zn2F6                                                     

  Number of irreducible atoms/shells =       6


  Total number atoms/shells =      16

  Dimensionality = 3               :  Bulk   


  Symmetry :

  Crystal family                   :  Tetragonal  
  Crystal class  (Groth - 1921)    :  Ditetragonal Dipyramidal             

  Space group (centrosymmetric)    :  P 4/M B M       

  Patterson group                  :  P 4/m m m

  Cartesian lattice vectors (Angstroms) :

        4.200000    0.000000    0.000000
        0.000000    4.200000    0.000000
        0.000000    0.000000    4.200000

  Cell parameters (Angstroms/Degrees):

  a =       4.2000    alpha =  90.0000
  b =       4.2000    beta  =  90.0000
  c =       4.2000    gamma =  90.0000

  Initial cell volume =          74.088000 Angs**3

  Temperature of configuration =  0.000     K 

  Pressure of configuration =         0.000 GPa 

  Fractional coordinates of asymmetric unit :

--------------------------------------------------------------------------------
   No.  Atomic       x           y          z         Charge      Occupancy
        Label      (Frac)      (Frac)     (Frac)        (e)         (Frac)  
--------------------------------------------------------------------------------
      1 K     c    0.000000    0.000000    0.000000     1.50000    1.000000    
      2 Zn    c    0.000000    0.500000    0.000000     2.00000    1.000000    
      3 F     c    0.000000    0.500000    0.500000     0.37800    1.000000    
      4 F     c    0.227100 *  0.727100    0.000000     0.37800    1.000000    
      5 F     s    0.000000    0.500000    0.500000    -1.54467    1.000000    
      6 F     s    0.227100 *  0.727100    0.000000    -1.54467    1.000000    
--------------------------------------------------------------------------------


  Constraints : 

--------------------------------------------------------------------------------
  Constraint no.      Unconstrained     Constrained    Coefficient    Offset
                         Variable         Variable
--------------------------------------------------------------------------------
           1              Strain 1        Strain 2       1.00000      0.0000
           2                 4 x             4 y         1.00000      0.5000
           3                 6 x             6 y         1.00000      0.5000
--------------------------------------------------------------------------------


********************************************************************************
*  General input information                                                   *
********************************************************************************

  Species output for all configurations : 

--------------------------------------------------------------------------------
  Species    Type    Atomic    Atomic    Charge       Radii (Angs)     Library
                     Number     Mass       (e)     Cova   Ionic  VDW   Symbol
--------------------------------------------------------------------------------
    K        Core       19      39.10   1.500000   1.330  0.000  2.800          
    Zn       Core       30      65.39   2.000000   1.450  0.000  2.160          
    F        Core        9      19.00   0.378000   0.710  0.000  1.300          
    F        Shell       9       0.00  -1.544667   0.710  0.000  1.300          
--------------------------------------------------------------------------------


  Lattice summation method               =    Ewald          (3-D)
                                         =    Parry          (2-D)
                                         =    Saunders et al (1-D)
  Accuracy factor for lattice sums       =   12.000


  Time limit = Infinity

  Maximum range for interatomic potentials =    100000.000000 Angstroms

  General interatomic potentials :

--------------------------------------------------------------------------------
Atom  Types   Potential         A         B         C         D     Cutoffs(Ang)
  1     2                                                            Min    Max 
--------------------------------------------------------------------------------
K    c K    c Buckingham    0.219E+04 0.192      0.00      0.00     0.000 10.000
Zn   c F    s Buckingham    0.148E+04 0.266      0.00      0.00     0.000 10.000
F    s F    s Buckingham     912.     0.271      13.8      0.00     0.000 10.000
K    c F    s Buckingham    0.352E+04 0.267      0.00      0.00     0.000 10.000
F    c F    s Spring (c-s)   30.6      0.00      0.00      0.00     0.000  0.800
--------------------------------------------------------------------------------

********************************************************************************
*  Output for configuration   1                                                *
********************************************************************************


  Components of energy : 

--------------------------------------------------------------------------------
  Interatomic potentials     =         162.45946484 eV
  Monopole - monopole (real) =         -60.52492651 eV
  Monopole - monopole (recip)=         -85.88046888 eV
  Monopole - monopole (total)=        -146.40539539 eV
--------------------------------------------------------------------------------
  Total lattice energy       =          16.05406946 eV
--------------------------------------------------------------------------------
  Total lattice energy       =            1548.9723 kJ/(mole unit cells)
--------------------------------------------------------------------------------


  Number of variables =        4

  Maximum number of calculations  =          1000
  Maximum Hessian update interval =            10
  Maximum step size               =   1.000000000
  Maximum parameter tolerance     =   0.000010000
  Maximum function  tolerance     =   0.000010000
  Maximum gradient  tolerance     =   0.001000000
  Maximum gradient  component     =   0.010000000

  Symmetry constrained optimisation

  Symmetry used for second derivatives

  Cell parameters to be optimised using strains

  Newton-Raphson optimiser to be used

  BFGS hessian update to be used

  Start of bulk optimisation :

  Cycle:      0 Energy:        16.054069  Gnorm:    200.356913  CPU:    0.005
  ** Hessian calculated **
  Cycle:      1 Energy:       -95.993612  Gnorm:     25.000356  CPU:    0.012
  ** Hessian calculated **
  Cycle:      2 Energy:       -97.111328  Gnorm:      3.888746  CPU:    0.018
  Cycle:      3 Energy:       -97.161372  Gnorm:      0.397623  CPU:    0.021
  Cycle:      4 Energy:       -97.167034  Gnorm:      0.329769  CPU:    0.024
  Cycle:      5 Energy:       -97.167669  Gnorm:      0.123171  CPU:    0.027
  Cycle:      6 Energy:       -97.167704  Gnorm:      0.046398  CPU:    0.031
  Cycle:      7 Energy:       -97.167706  Gnorm:      0.007096  CPU:    0.034
  Cycle:      8 Energy:       -97.167706  Gnorm:      0.001109  CPU:    0.038


  **** Optimisation achieved ****


  Final energy =     -97.16770614 eV
  Final Gnorm  =       0.00008966

  Components of energy : 

--------------------------------------------------------------------------------
  Interatomic potentials     =          13.80799917 eV
  Monopole - monopole (real) =         -25.74557862 eV
  Monopole - monopole (recip)=         -85.23012669 eV
  Monopole - monopole (total)=        -110.97570531 eV
--------------------------------------------------------------------------------
  Total lattice energy       =         -97.16770614 eV
--------------------------------------------------------------------------------
  Total lattice energy       =           -9375.1983 kJ/(mole unit cells)
--------------------------------------------------------------------------------

  Final asymmetric unit coordinates :

--------------------------------------------------------------------------------
   No.  Atomic        x           y           z         Radius
        Label       (Frac)      (Frac)      (Frac)       (Angs) 
--------------------------------------------------------------------------------
     1  K     c     0.000000    0.000000    0.000000    0.000000
     2  Zn    c     0.000000    0.500000    0.000000    0.000000
     3  F     c     0.000000    0.500000    0.500000    0.000000
     4  F     c     0.230490    0.730490    0.000000    0.000000
     5  F     s     0.000000    0.500000    0.500000    0.000000
     6  F     s     0.228989    0.728989    0.000000    0.000000
--------------------------------------------------------------------------------

  Final Cartesian lattice vectors (Angstroms) :

        6.409689    0.000000    0.000000
        0.000000    6.409689    0.000000
        0.000000    0.000000    3.747505


  Final cell parameters and derivatives :

--------------------------------------------------------------------------------
       a            6.409689 Angstrom     dE/de1(xx)    -0.000042 eV/strain
       b            6.409689 Angstrom     dE/de2(yy)     0.000000 eV/strain
       c            3.747505 Angstrom     dE/de3(zz)    -0.000002 eV/strain
       alpha       90.000000 Degrees      dE/de4(yz)     0.000000 eV/strain
       beta        90.000000 Degrees      dE/de5(xz)     0.000000 eV/strain
       gamma       90.000000 Degrees      dE/de6(xy)     0.000000 eV/strain
--------------------------------------------------------------------------------

  Primitive cell volume =           153.962954 Angs**3

  Density of cell =      3.483497 g/cm**3

  Non-primitive cell volume =           153.962954 Angs**3


  Final internal derivatives :

--------------------------------------------------------------------------------
   No.  Atomic          a             b             c           Radius
        Label          (eV)          (eV)          (eV)        (eV/Angs)
--------------------------------------------------------------------------------
      1 K     c       0.000000      0.000000      0.000000      0.000000
      2 Zn    c       0.000000      0.000000      0.000000      0.000000
      3 F     c       0.000000      0.000000      0.000000      0.000000
      4 F     c       0.000179      0.000000      0.000000      0.000000
      5 F     s       0.000000      0.000000      0.000000      0.000000
      6 F     s      -0.000308      0.000000      0.000000      0.000000
--------------------------------------------------------------------------------
  Maximum abs         0.000308      0.000000      0.000000      0.000000
--------------------------------------------------------------------------------


  Born effective charge tensors : 

-------------------------------------------------------------------------------
  Atom             x           y             z
-------------------------------------------------------------------------------
   1 K     x       1.2219     -0.0034      0.0000
           y       0.0034      1.2219      0.0000
           z       0.0000      0.0000      1.4785
-------------------------------------------------------------------------------
   2 Zn    x       1.9663     -0.1084      0.0000
           y      -0.1084      1.9663      0.0000
           z       0.0000      0.0000      1.3594
-------------------------------------------------------------------------------
   3 F     x      -1.0738      0.0081      0.0000
           y       0.0081     -1.0738      0.0000
           z       0.0000      0.0000     -0.8587
-------------------------------------------------------------------------------
   4 F     x      -1.0572     -0.3039      0.0000
           y      -0.3039     -1.0572      0.0000
           z       0.0000      0.0000     -0.9896
-------------------------------------------------------------------------------




  Elastic Constant Matrix: (Units=GPa)

-------------------------------------------------------------------------------
  Indices      1         2         3         4         5         6    
-------------------------------------------------------------------------------
       1    158.2614   42.0469   -5.1151    0.0000    0.0000    0.0000
       2     42.0469  158.2614   -5.1151    0.0000    0.0000    0.0000
       3     -5.1151   -5.1151  177.1410    0.0000    0.0000    0.0000
       4      0.0000    0.0000    0.0000    6.6983    0.0000    0.0000
       5      0.0000    0.0000    0.0000    0.0000    6.6983    0.0000
       6      0.0000    0.0000    0.0000    0.0000    0.0000   53.6086
-------------------------------------------------------------------------------


  Elastic Compliance Matrix: (Units=1/GPa)

-------------------------------------------------------------------------------
  Indices      1         2         3         4         5         6    
-------------------------------------------------------------------------------
       1    0.006802 -0.001803  0.000144  0.000000  0.000000  0.000000
       2   -0.001803  0.006802  0.000144  0.000000  0.000000  0.000000
       3    0.000144  0.000144  0.005654  0.000000  0.000000  0.000000
       4    0.000000  0.000000  0.000000  0.149291  0.000000  0.000000
       5    0.000000  0.000000  0.000000  0.000000  0.149291  0.000000
       6    0.000000  0.000000  0.000000  0.000000  0.000000  0.018654
-------------------------------------------------------------------------------

  Mechanical properties :

-------------------------------------------------------------------------------
  Convention :                    Reuss         Voigt         Hill
-------------------------------------------------------------------------------
  Bulk  Modulus (GPa)     =      61.61278      61.92189      61.76734
  Shear Modulus (GPa)     =      14.49560      44.19085      29.34323
-------------------------------------------------------------------------------
  Velocity S-wave (km/s)  =       2.03991       3.56171       2.90233
  Velocity P-wave (km/s)  =       4.82031       5.88983       5.38171
-------------------------------------------------------------------------------
  Compressibility (1/GPa) =    0.01623040
-------------------------------------------------------------------------------
  Stress axis :                     x             y             z
-------------------------------------------------------------------------------
  Youngs Moduli (GPa)     =     147.01063     147.01063     176.87972
-------------------------------------------------------------------------------
  Poissons Ratio (x)      =                     0.26499      -0.02554
  Poissons Ratio (y)      =       0.26499                    -0.02554
  Poissons Ratio (z)      =      -0.02122      -0.02122
-------------------------------------------------------------------------------


  Piezoelectric Strain Matrix: (Units=C/m**2)

-------------------------------------------------------------------------------
  Indices      1         2         3         4         5         6    
-------------------------------------------------------------------------------
       x     0.00000   0.00000   0.00000   0.00000   0.00000   0.00000
       y     0.00000   0.00000   0.00000   0.00000   0.00000   0.00000
       z     0.00000   0.00000   0.00000   0.00000   0.00000   0.00000
-------------------------------------------------------------------------------


  Piezoelectric Stress Matrix: (Units=10**-11 C/N)

-------------------------------------------------------------------------------
  Indices      1         2         3         4         5         6    
-------------------------------------------------------------------------------
       x     0.00000   0.00000   0.00000   0.00000   0.00000   0.00000
       y     0.00000   0.00000   0.00000   0.00000   0.00000   0.00000
       z     0.00000   0.00000   0.00000   0.00000   0.00000   0.00000
-------------------------------------------------------------------------------


  Static dielectric constant tensor : 

-------------------------------------------------------------------------------
              x         y         z
-------------------------------------------------------------------------------
       x    -2.55765   0.00000   0.00000
       y     0.00000  -2.55765   0.00000
       z     0.00000   0.00000   0.58579
--------------------------------------------------------------------------------

  High frequency dielectric constant tensor : 

-------------------------------------------------------------------------------
              x         y         z
-------------------------------------------------------------------------------
       x     1.53853   0.00000   0.00000
       y     0.00000   1.53853   0.00000
       z     0.00000   0.00000   1.49586
-------------------------------------------------------------------------------

  Static refractive indices : 

-------------------------------------------------------------------------------
    1 =   -1.59927      2 =   -1.59927      3 =    0.76537
-------------------------------------------------------------------------------

  High frequency refractive indices : 

-------------------------------------------------------------------------------
    1 =    1.22305      2 =    1.24038      3 =    1.24038
-------------------------------------------------------------------------------


  Time to end of optimisation =       0.0464 seconds


  Peak dynamic memory used =       0.59 MB 


  Timing analysis for GULP :

--------------------------------------------------------------------------------
  Task / Subroutine                                          Time (Seconds)
--------------------------------------------------------------------------------
  Calculation of reciprocal space energy and derivatives          0.0009
  Calculation of reciprocal space energy using symmetry           0.0036
  Calculation of real space energy and derivatives                0.0040
  Calculation of real space energy using symmetry                 0.0341
  Symmetry generation of equivalent positions                     0.0004
--------------------------------------------------------------------------------
  Total CPU time                                                  0.0464
--------------------------------------------------------------------------------


  CIF file written as perov.cif                                               


  Job Finished at 12:49.38 22nd February   2017                               

