********************************************************************************
*                       GENERAL UTILITY LATTICE PROGRAM                        *
*                                 Julian Gale                                  *
*                      Nanochemistry Research Institute                        *
*                           Department of Chemistry                            *
*                    Curtin University, Western Australia                      *
********************************************************************************
* Version = 4.3.2 * Last modified =  3rd March 2015                            *
********************************************************************************
*  optimise     - perform optimisation run                                     *
*  conp         - constant pressure calculation                                *
*  property     - calculate properties for final geometry                      *
********************************************************************************

  Job Started  at 12:49.35 22nd February   2017                               

  Number of CPUs =     1


  Total number of configurations input =   1

********************************************************************************
*  Input for Configuration =   1                                               *
********************************************************************************

  Formula = K2Zn2F6                                                     

  Number of irreducible atoms/shells =       6


  Total number atoms/shells =      16

  Dimensionality = 3               :  Bulk   


  Symmetry :

  Crystal family                   :  Tetragonal  
  Crystal class  (Groth - 1921)    :  Ditetragonal Dipyramidal             

  Space group (centrosymmetric)    :  P 4/M B M       

  Patterson group                  :  P 4/m m m

  Cartesian lattice vectors (Angstroms) :

        4.200000    0.000000    0.000000
        0.000000    4.200000    0.000000
        0.000000    0.000000    4.200000

  Cell parameters (Angstroms/Degrees):

  a =       4.2000    alpha =  90.0000
  b =       4.2000    beta  =  90.0000
  c =       4.2000    gamma =  90.0000

  Initial cell volume =          74.088000 Angs**3

  Temperature of configuration =  0.000     K 

  Pressure of configuration =         0.000 GPa 

  Fractional coordinates of asymmetric unit :

--------------------------------------------------------------------------------
   No.  Atomic       x           y          z         Charge      Occupancy
        Label      (Frac)      (Frac)     (Frac)        (e)         (Frac)  
--------------------------------------------------------------------------------
      1 K     c    0.000000    0.000000    0.000000     1.00000    1.000000    
      2 Zn    c    0.000000    0.500000    0.000000     1.50000    1.000000    
      3 F     c    0.000000    0.500000    0.500000     0.37800    1.000000    
      4 F     c    0.227100 *  0.727100    0.000000     0.37800    1.000000    
      5 F     s    0.000000    0.500000    0.500000    -1.21133    1.000000    
      6 F     s    0.227100 *  0.727100    0.000000    -1.21133    1.000000    
--------------------------------------------------------------------------------


  Constraints : 

--------------------------------------------------------------------------------
  Constraint no.      Unconstrained     Constrained    Coefficient    Offset
                         Variable         Variable
--------------------------------------------------------------------------------
           1              Strain 1        Strain 2       1.00000      0.0000
           2                 4 x             4 y         1.00000      0.5000
           3                 6 x             6 y         1.00000      0.5000
--------------------------------------------------------------------------------


********************************************************************************
*  General input information                                                   *
********************************************************************************

  Species output for all configurations : 

--------------------------------------------------------------------------------
  Species    Type    Atomic    Atomic    Charge       Radii (Angs)     Library
                     Number     Mass       (e)     Cova   Ionic  VDW   Symbol
--------------------------------------------------------------------------------
    K        Core       19      39.10   1.000000   1.330  0.000  2.800          
    Zn       Core       30      65.39   1.500000   1.450  0.000  2.160          
    F        Core        9      19.00   0.378000   0.710  0.000  1.300          
    F        Shell       9       0.00  -1.211333   0.710  0.000  1.300          
--------------------------------------------------------------------------------


  Lattice summation method               =    Ewald          (3-D)
                                         =    Parry          (2-D)
                                         =    Saunders et al (1-D)
  Accuracy factor for lattice sums       =   12.000


  Time limit = Infinity

  Maximum range for interatomic potentials =    100000.000000 Angstroms

  General interatomic potentials :

--------------------------------------------------------------------------------
Atom  Types   Potential         A         B         C         D     Cutoffs(Ang)
  1     2                                                            Min    Max 
--------------------------------------------------------------------------------
K    c K    c Buckingham    0.219E+04 0.192      0.00      0.00     0.000 10.000
Zn   c F    s Buckingham    0.148E+04 0.266      0.00      0.00     0.000 10.000
F    s F    s Buckingham     912.     0.271      13.8      0.00     0.000 10.000
K    c F    s Buckingham    0.352E+04 0.267      0.00      0.00     0.000 10.000
F    c F    s Spring (c-s)   18.8      0.00      0.00      0.00     0.000  0.800
--------------------------------------------------------------------------------

********************************************************************************
*  Output for configuration   1                                                *
********************************************************************************


  Components of energy : 

--------------------------------------------------------------------------------
  Interatomic potentials     =         162.45946484 eV
  Monopole - monopole (real) =         -31.18685704 eV
  Monopole - monopole (recip)=         -44.35057530 eV
  Monopole - monopole (total)=         -75.53743233 eV
--------------------------------------------------------------------------------
  Total lattice energy       =          86.92203251 eV
--------------------------------------------------------------------------------
  Total lattice energy       =            8386.6474 kJ/(mole unit cells)
--------------------------------------------------------------------------------


  Number of variables =        4

  Maximum number of calculations  =          1000
  Maximum Hessian update interval =            10
  Maximum step size               =   1.000000000
  Maximum parameter tolerance     =   0.000010000
  Maximum function  tolerance     =   0.000010000
  Maximum gradient  tolerance     =   0.001000000
  Maximum gradient  component     =   0.010000000

  Symmetry constrained optimisation

  Symmetry used for second derivatives

  Cell parameters to be optimised using strains

  Newton-Raphson optimiser to be used

  BFGS hessian update to be used

  Start of bulk optimisation :

  Cycle:      0 Energy:        86.922033  Gnorm:    216.759932  CPU:    0.005
  ** Hessian calculated **
  Cycle:      1 Energy:       -45.071053  Gnorm:     23.023978  CPU:    0.012
  ** Hessian calculated **
  Cycle:      2 Energy:       -45.988318  Gnorm:      7.535450  CPU:    0.018
  Cycle:      3 Energy:       -46.127928  Gnorm:      0.365050  CPU:    0.021
  Cycle:      4 Energy:       -46.130162  Gnorm:      0.202507  CPU:    0.025
  Cycle:      5 Energy:       -46.139626  Gnorm:      0.122137  CPU:    0.030
  Cycle:      6 Energy:       -46.140535  Gnorm:      0.110410  CPU:    0.033
  Cycle:      7 Energy:       -46.140975  Gnorm:      0.059747  CPU:    0.037
  Cycle:      8 Energy:       -46.140980  Gnorm:      0.004965  CPU:    0.040
  Cycle:      9 Energy:       -46.140980  Gnorm:      0.004483  CPU:    0.043


  **** Optimisation achieved ****


  Final energy =     -46.14098025 eV
  Final Gnorm  =       0.00025810

  Components of energy : 

--------------------------------------------------------------------------------
  Interatomic potentials     =           5.85434646 eV
  Monopole - monopole (real) =          -8.39187167 eV
  Monopole - monopole (recip)=         -43.60345504 eV
  Monopole - monopole (total)=         -51.99532671 eV
--------------------------------------------------------------------------------
  Total lattice energy       =         -46.14098025 eV
--------------------------------------------------------------------------------
  Total lattice energy       =           -4451.8993 kJ/(mole unit cells)
--------------------------------------------------------------------------------

  Final asymmetric unit coordinates :

--------------------------------------------------------------------------------
   No.  Atomic        x           y           z         Radius
        Label       (Frac)      (Frac)      (Frac)       (Angs) 
--------------------------------------------------------------------------------
     1  K     c     0.000000    0.000000    0.000000    0.000000
     2  Zn    c     0.000000    0.500000    0.000000    0.000000
     3  F     c     0.000000    0.500000    0.500000    0.000000
     4  F     c     0.230047    0.730047    0.000000    0.000000
     5  F     s     0.000000    0.500000    0.500000    0.000000
     6  F     s     0.228543    0.728543    0.000000    0.000000
--------------------------------------------------------------------------------

  Final Cartesian lattice vectors (Angstroms) :

        7.066074    0.000000    0.000000
        0.000000    7.066074    0.000000
        0.000000    0.000000    4.182709


  Final cell parameters and derivatives :

--------------------------------------------------------------------------------
       a            7.066074 Angstrom     dE/de1(xx)    -0.000146 eV/strain
       b            7.066074 Angstrom     dE/de2(yy)     0.000000 eV/strain
       c            4.182709 Angstrom     dE/de3(zz)    -0.000056 eV/strain
       alpha       90.000000 Degrees      dE/de4(yz)     0.000000 eV/strain
       beta        90.000000 Degrees      dE/de5(xz)     0.000000 eV/strain
       gamma       90.000000 Degrees      dE/de6(xy)     0.000000 eV/strain
--------------------------------------------------------------------------------

  Primitive cell volume =           208.840163 Angs**3

  Density of cell =      2.568134 g/cm**3

  Non-primitive cell volume =           208.840163 Angs**3


  Final internal derivatives :

--------------------------------------------------------------------------------
   No.  Atomic          a             b             c           Radius
        Label          (eV)          (eV)          (eV)        (eV/Angs)
--------------------------------------------------------------------------------
      1 K     c       0.000000      0.000000      0.000000      0.000000
      2 Zn    c       0.000000      0.000000      0.000000      0.000000
      3 F     c       0.000000      0.000000      0.000000      0.000000
      4 F     c      -0.000908      0.000000      0.000000      0.000000
      5 F     s       0.000000      0.000000      0.000000      0.000000
      6 F     s       0.000466      0.000000      0.000000      0.000000
--------------------------------------------------------------------------------
  Maximum abs         0.000908      0.000000      0.000000      0.000000
--------------------------------------------------------------------------------


  Born effective charge tensors : 

-------------------------------------------------------------------------------
  Atom             x           y             z
-------------------------------------------------------------------------------
   1 K     x       0.8234     -0.0023      0.0000
           y       0.0023      0.8234      0.0000
           z       0.0000      0.0000      0.9848
-------------------------------------------------------------------------------
   2 Zn    x       1.4625     -0.0735      0.0000
           y      -0.0735      1.4625      0.0000
           z       0.0000      0.0000      1.0895
-------------------------------------------------------------------------------
   3 F     x      -0.7639      0.0041      0.0000
           y       0.0041     -0.7639      0.0000
           z       0.0000      0.0000     -0.6225
-------------------------------------------------------------------------------
   4 F     x      -0.7610     -0.1914      0.0000
           y      -0.1914     -0.7610      0.0000
           z       0.0000      0.0000     -0.7259
-------------------------------------------------------------------------------




  Elastic Constant Matrix: (Units=GPa)

-------------------------------------------------------------------------------
  Indices      1         2         3         4         5         6    
-------------------------------------------------------------------------------
       1     55.3810   16.0438   -1.8989    0.0000    0.0000    0.0000
       2     16.0438   55.3810   -1.8989    0.0000    0.0000    0.0000
       3     -1.8989   -1.8989   76.1525    0.0000    0.0000    0.0000
       4      0.0000    0.0000    0.0000    2.1103    0.0000    0.0000
       5      0.0000    0.0000    0.0000    0.0000    2.1103    0.0000
       6      0.0000    0.0000    0.0000    0.0000    0.0000   20.9601
-------------------------------------------------------------------------------


  Elastic Compliance Matrix: (Units=1/GPa)

-------------------------------------------------------------------------------
  Indices      1         2         3         4         5         6    
-------------------------------------------------------------------------------
       1    0.019720 -0.005701  0.000350  0.000000  0.000000  0.000000
       2   -0.005701  0.019720  0.000350  0.000000  0.000000  0.000000
       3    0.000350  0.000350  0.013149  0.000000  0.000000  0.000000
       4    0.000000  0.000000  0.000000  0.473866  0.000000  0.000000
       5    0.000000  0.000000  0.000000  0.000000  0.473866  0.000000
       6    0.000000  0.000000  0.000000  0.000000  0.000000  0.047710
-------------------------------------------------------------------------------

  Mechanical properties :

-------------------------------------------------------------------------------
  Convention :                    Reuss         Voigt         Hill
-------------------------------------------------------------------------------
  Bulk  Modulus (GPa)     =      23.48193      23.48962      23.48578
  Shear Modulus (GPa)     =       4.66317      16.68071      10.67194
-------------------------------------------------------------------------------
  Velocity S-wave (km/s)  =       1.34751       2.54858       2.03851
  Velocity P-wave (km/s)  =       3.40068       4.21983       3.83220
-------------------------------------------------------------------------------
  Compressibility (1/GPa) =    0.04258593
-------------------------------------------------------------------------------
  Stress axis :                     x             y             z
-------------------------------------------------------------------------------
  Youngs Moduli (GPa)     =      50.70924      50.70924      76.05151
-------------------------------------------------------------------------------
  Poissons Ratio (x)      =                     0.28909      -0.02659
  Poissons Ratio (y)      =       0.28909                    -0.02659
  Poissons Ratio (z)      =      -0.01773      -0.01773
-------------------------------------------------------------------------------


  Piezoelectric Strain Matrix: (Units=C/m**2)

-------------------------------------------------------------------------------
  Indices      1         2         3         4         5         6    
-------------------------------------------------------------------------------
       x     0.00000   0.00000   0.00000   0.00000   0.00000   0.00000
       y     0.00000   0.00000   0.00000   0.00000   0.00000   0.00000
       z     0.00000   0.00000   0.00000   0.00000   0.00000   0.00000
-------------------------------------------------------------------------------


  Piezoelectric Stress Matrix: (Units=10**-11 C/N)

-------------------------------------------------------------------------------
  Indices      1         2         3         4         5         6    
-------------------------------------------------------------------------------
       x     0.00000   0.00000   0.00000   0.00000   0.00000   0.00000
       y     0.00000   0.00000   0.00000   0.00000   0.00000   0.00000
       z     0.00000   0.00000   0.00000   0.00000   0.00000   0.00000
-------------------------------------------------------------------------------


  Static dielectric constant tensor : 

-------------------------------------------------------------------------------
              x         y         z
-------------------------------------------------------------------------------
       x    -1.28180   0.00000   0.00000
       y     0.00000  -1.28180   0.00000
       z     0.00000   0.00000   0.83770
--------------------------------------------------------------------------------

  High frequency dielectric constant tensor : 

-------------------------------------------------------------------------------
              x         y         z
-------------------------------------------------------------------------------
       x     1.39906   0.00000   0.00000
       y     0.00000   1.39906   0.00000
       z     0.00000   0.00000   1.37533
-------------------------------------------------------------------------------

  Static refractive indices : 

-------------------------------------------------------------------------------
    1 =   -1.13216      2 =   -1.13216      3 =    0.91526
-------------------------------------------------------------------------------

  High frequency refractive indices : 

-------------------------------------------------------------------------------
    1 =    1.17274      2 =    1.18282      3 =    1.18282
-------------------------------------------------------------------------------


  Time to end of optimisation =       0.0511 seconds


  Peak dynamic memory used =       0.59 MB 


  Timing analysis for GULP :

--------------------------------------------------------------------------------
  Task / Subroutine                                          Time (Seconds)
--------------------------------------------------------------------------------
  Calculation of reciprocal space energy and derivatives          0.0008
  Calculation of reciprocal space energy using symmetry           0.0040
  Calculation of real space energy and derivatives                0.0038
  Calculation of real space energy using symmetry                 0.0386
  Symmetry generation of equivalent positions                     0.0004
--------------------------------------------------------------------------------
  Total CPU time                                                  0.0511
--------------------------------------------------------------------------------


  CIF file written as perov.cif                                               


  Job Finished at 12:49.35 22nd February   2017                               

