********************************************************************************
*                       GENERAL UTILITY LATTICE PROGRAM                        *
*                                 Julian Gale                                  *
*                      Nanochemistry Research Institute                        *
*                           Department of Chemistry                            *
*                    Curtin University, Western Australia                      *
********************************************************************************
* Version = 4.3.2 * Last modified =  3rd March 2015                            *
********************************************************************************
*  optimise     - perform optimisation run                                     *
*  conp         - constant pressure calculation                                *
*  property     - calculate properties for final geometry                      *
********************************************************************************

  Job Started  at 12:49.36 22nd February   2017                               

  Number of CPUs =     1


  Total number of configurations input =   1

********************************************************************************
*  Input for Configuration =   1                                               *
********************************************************************************

  Formula = K2Zn2F6                                                     

  Number of irreducible atoms/shells =       6


  Total number atoms/shells =      16

  Dimensionality = 3               :  Bulk   


  Symmetry :

  Crystal family                   :  Tetragonal  
  Crystal class  (Groth - 1921)    :  Ditetragonal Dipyramidal             

  Space group (centrosymmetric)    :  P 4/M B M       

  Patterson group                  :  P 4/m m m

  Cartesian lattice vectors (Angstroms) :

        4.200000    0.000000    0.000000
        0.000000    4.200000    0.000000
        0.000000    0.000000    4.200000

  Cell parameters (Angstroms/Degrees):

  a =       4.2000    alpha =  90.0000
  b =       4.2000    beta  =  90.0000
  c =       4.2000    gamma =  90.0000

  Initial cell volume =          74.088000 Angs**3

  Temperature of configuration =  0.000     K 

  Pressure of configuration =         0.000 GPa 

  Fractional coordinates of asymmetric unit :

--------------------------------------------------------------------------------
   No.  Atomic       x           y          z         Charge      Occupancy
        Label      (Frac)      (Frac)     (Frac)        (e)         (Frac)  
--------------------------------------------------------------------------------
      1 K     c    0.000000    0.000000    0.000000     1.10000    1.000000    
      2 Zn    c    0.000000    0.500000    0.000000     1.80000    1.000000    
      3 F     c    0.000000    0.500000    0.500000     0.37800    1.000000    
      4 F     c    0.227100 *  0.727100    0.000000     0.37800    1.000000    
      5 F     s    0.000000    0.500000    0.500000    -1.34467    1.000000    
      6 F     s    0.227100 *  0.727100    0.000000    -1.34467    1.000000    
--------------------------------------------------------------------------------


  Constraints : 

--------------------------------------------------------------------------------
  Constraint no.      Unconstrained     Constrained    Coefficient    Offset
                         Variable         Variable
--------------------------------------------------------------------------------
           1              Strain 1        Strain 2       1.00000      0.0000
           2                 4 x             4 y         1.00000      0.5000
           3                 6 x             6 y         1.00000      0.5000
--------------------------------------------------------------------------------


********************************************************************************
*  General input information                                                   *
********************************************************************************

  Species output for all configurations : 

--------------------------------------------------------------------------------
  Species    Type    Atomic    Atomic    Charge       Radii (Angs)     Library
                     Number     Mass       (e)     Cova   Ionic  VDW   Symbol
--------------------------------------------------------------------------------
    K        Core       19      39.10   1.100000   1.330  0.000  2.800          
    Zn       Core       30      65.39   1.800000   1.450  0.000  2.160          
    F        Core        9      19.00   0.378000   0.710  0.000  1.300          
    F        Shell       9       0.00  -1.344667   0.710  0.000  1.300          
--------------------------------------------------------------------------------


  Lattice summation method               =    Ewald          (3-D)
                                         =    Parry          (2-D)
                                         =    Saunders et al (1-D)
  Accuracy factor for lattice sums       =   12.000


  Time limit = Infinity

  Maximum range for interatomic potentials =    100000.000000 Angstroms

  General interatomic potentials :

--------------------------------------------------------------------------------
Atom  Types   Potential         A         B         C         D     Cutoffs(Ang)
  1     2                                                            Min    Max 
--------------------------------------------------------------------------------
K    c K    c Buckingham    0.219E+04 0.192      0.00      0.00     0.000 10.000
Zn   c F    s Buckingham    0.148E+04 0.266      0.00      0.00     0.000 10.000
F    s F    s Buckingham     912.     0.271      13.8      0.00     0.000 10.000
K    c F    s Buckingham    0.352E+04 0.267      0.00      0.00     0.000 10.000
F    c F    s Spring (c-s)   23.2      0.00      0.00      0.00     0.000  0.800
--------------------------------------------------------------------------------

********************************************************************************
*  Output for configuration   1                                                *
********************************************************************************


  Components of energy : 

--------------------------------------------------------------------------------
  Interatomic potentials     =         162.45946484 eV
  Monopole - monopole (real) =         -42.30897818 eV
  Monopole - monopole (recip)=         -60.34318975 eV
  Monopole - monopole (total)=        -102.65216794 eV
--------------------------------------------------------------------------------
  Total lattice energy       =          59.80729691 eV
--------------------------------------------------------------------------------
  Total lattice energy       =            5770.4899 kJ/(mole unit cells)
--------------------------------------------------------------------------------


  Number of variables =        4

  Maximum number of calculations  =          1000
  Maximum Hessian update interval =            10
  Maximum step size               =   1.000000000
  Maximum parameter tolerance     =   0.000010000
  Maximum function  tolerance     =   0.000010000
  Maximum gradient  tolerance     =   0.001000000
  Maximum gradient  component     =   0.010000000

  Symmetry constrained optimisation

  Symmetry used for second derivatives

  Cell parameters to be optimised using strains

  Newton-Raphson optimiser to be used

  BFGS hessian update to be used

  Start of bulk optimisation :

  Cycle:      0 Energy:        59.807297  Gnorm:    209.927242  CPU:    0.005
  ** Hessian calculated **
  Cycle:      1 Energy:       -64.611942  Gnorm:     26.474117  CPU:    0.012
  ** Hessian calculated **
  Cycle:      2 Energy:       -65.403487  Gnorm:      7.533093  CPU:    0.018
  Cycle:      3 Energy:       -65.468254  Gnorm:      4.008859  CPU:    0.021
  Cycle:      4 Energy:       -65.536136  Gnorm:      0.174297  CPU:    0.025
  Cycle:      5 Energy:       -65.537244  Gnorm:      0.100412  CPU:    0.028
  Cycle:      6 Energy:       -65.537313  Gnorm:      0.019712  CPU:    0.031
  Cycle:      7 Energy:       -65.537320  Gnorm:      0.006654  CPU:    0.034
  Cycle:      8 Energy:       -65.537320  Gnorm:      0.002173  CPU:    0.037


  **** Optimisation achieved ****


  Final energy =     -65.53732055 eV
  Final Gnorm  =       0.00044765

  Components of energy : 

--------------------------------------------------------------------------------
  Interatomic potentials     =           8.94728558 eV
  Monopole - monopole (real) =         -15.65363274 eV
  Monopole - monopole (recip)=         -58.83097339 eV
  Monopole - monopole (total)=         -74.48460613 eV
--------------------------------------------------------------------------------
  Total lattice energy       =         -65.53732055 eV
--------------------------------------------------------------------------------
  Total lattice energy       =           -6323.3496 kJ/(mole unit cells)
--------------------------------------------------------------------------------

  Final asymmetric unit coordinates :

--------------------------------------------------------------------------------
   No.  Atomic        x           y           z         Radius
        Label       (Frac)      (Frac)      (Frac)       (Angs) 
--------------------------------------------------------------------------------
     1  K     c     0.000000    0.000000    0.000000    0.000000
     2  Zn    c     0.000000    0.500000    0.000000    0.000000
     3  F     c     0.000000    0.500000    0.500000    0.000000
     4  F     c     0.218700    0.718700    0.000000    0.000000
     5  F     s     0.000000    0.500000    0.500000    0.000000
     6  F     s     0.216052    0.716052    0.000000    0.000000
--------------------------------------------------------------------------------

  Final Cartesian lattice vectors (Angstroms) :

        6.843137    0.000000    0.000000
        0.000000    6.843137    0.000000
        0.000000    0.000000    3.955613


  Final cell parameters and derivatives :

--------------------------------------------------------------------------------
       a            6.843137 Angstrom     dE/de1(xx)    -0.001196 eV/strain
       b            6.843137 Angstrom     dE/de2(yy)     0.000000 eV/strain
       c            3.955613 Angstrom     dE/de3(zz)    -0.000211 eV/strain
       alpha       90.000000 Degrees      dE/de4(yz)     0.000000 eV/strain
       beta        90.000000 Degrees      dE/de5(xz)     0.000000 eV/strain
       gamma       90.000000 Degrees      dE/de6(xy)     0.000000 eV/strain
--------------------------------------------------------------------------------

  Primitive cell volume =           185.235543 Angs**3

  Density of cell =      2.895392 g/cm**3

  Non-primitive cell volume =           185.235543 Angs**3


  Final internal derivatives :

--------------------------------------------------------------------------------
   No.  Atomic          a             b             c           Radius
        Label          (eV)          (eV)          (eV)        (eV/Angs)
--------------------------------------------------------------------------------
      1 K     c       0.000000      0.000000      0.000000      0.000000
      2 Zn    c       0.000000      0.000000      0.000000      0.000000
      3 F     c       0.000000      0.000000      0.000000      0.000000
      4 F     c       0.000614      0.000000      0.000000      0.000000
      5 F     s       0.000000      0.000000      0.000000      0.000000
      6 F     s      -0.001163      0.000000      0.000000      0.000000
--------------------------------------------------------------------------------
  Maximum abs         0.001163      0.000000      0.000000      0.000000
--------------------------------------------------------------------------------


  Born effective charge tensors : 

-------------------------------------------------------------------------------
  Atom             x           y             z
-------------------------------------------------------------------------------
   1 K     x       0.9140     -0.0026      0.0000
           y       0.0026      0.9140      0.0000
           z       0.0000      0.0000      1.0866
-------------------------------------------------------------------------------
   2 Zn    x       1.6536     -0.1459      0.0000
           y      -0.1459      1.6536      0.0000
           z       0.0000      0.0000      1.2869
-------------------------------------------------------------------------------
   3 F     x      -0.8586      0.0080      0.0000
           y       0.0080     -0.8586      0.0000
           z       0.0000      0.0000     -0.7040
-------------------------------------------------------------------------------
   4 F     x      -0.8545     -0.1936      0.0000
           y      -0.1936     -0.8545      0.0000
           z       0.0000      0.0000     -0.8348
-------------------------------------------------------------------------------




  Elastic Constant Matrix: (Units=GPa)

-------------------------------------------------------------------------------
  Indices      1         2         3         4         5         6    
-------------------------------------------------------------------------------
       1     80.7164   19.9887   -2.8930    0.0000    0.0000    0.0000
       2     19.9887   80.7164   -2.8930    0.0000    0.0000    0.0000
       3     -2.8930   -2.8930  114.1919    0.0000    0.0000    0.0000
       4      0.0000    0.0000    0.0000    2.8541    0.0000    0.0000
       5      0.0000    0.0000    0.0000    0.0000    2.8541    0.0000
       6      0.0000    0.0000    0.0000    0.0000    0.0000   22.2349
-------------------------------------------------------------------------------


  Elastic Compliance Matrix: (Units=1/GPa)

-------------------------------------------------------------------------------
  Indices      1         2         3         4         5         6    
-------------------------------------------------------------------------------
       1    0.013206 -0.003261  0.000252  0.000000  0.000000  0.000000
       2   -0.003261  0.013206  0.000252  0.000000  0.000000  0.000000
       3    0.000252  0.000252  0.008770  0.000000  0.000000  0.000000
       4    0.000000  0.000000  0.000000  0.350371  0.000000  0.000000
       5    0.000000  0.000000  0.000000  0.000000  0.350371  0.000000
       6    0.000000  0.000000  0.000000  0.000000  0.000000  0.044974
-------------------------------------------------------------------------------

  Mechanical properties :

-------------------------------------------------------------------------------
  Convention :                    Reuss         Voigt         Hill
-------------------------------------------------------------------------------
  Bulk  Modulus (GPa)     =      33.70792      33.78113      33.74453
  Shear Modulus (GPa)     =       6.27902      23.01675      14.64789
-------------------------------------------------------------------------------
  Velocity S-wave (km/s)  =       1.47263       2.81948       2.24923
  Velocity P-wave (km/s)  =       3.81227       4.71874       4.28952
-------------------------------------------------------------------------------
  Compressibility (1/GPa) =    0.02966662
-------------------------------------------------------------------------------
  Stress axis :                     x             y             z
-------------------------------------------------------------------------------
  Youngs Moduli (GPa)     =      75.72488      75.72488     114.02565
-------------------------------------------------------------------------------
  Poissons Ratio (x)      =                     0.24696      -0.02873
  Poissons Ratio (y)      =       0.24696                    -0.02873
  Poissons Ratio (z)      =      -0.01908      -0.01908
-------------------------------------------------------------------------------


  Piezoelectric Strain Matrix: (Units=C/m**2)

-------------------------------------------------------------------------------
  Indices      1         2         3         4         5         6    
-------------------------------------------------------------------------------
       x     0.00000   0.00000   0.00000   0.00000   0.00000   0.00000
       y     0.00000   0.00000   0.00000   0.00000   0.00000   0.00000
       z     0.00000   0.00000   0.00000   0.00000   0.00000   0.00000
-------------------------------------------------------------------------------


  Piezoelectric Stress Matrix: (Units=10**-11 C/N)

-------------------------------------------------------------------------------
  Indices      1         2         3         4         5         6    
-------------------------------------------------------------------------------
       x     0.00000   0.00000   0.00000   0.00000   0.00000   0.00000
       y     0.00000   0.00000   0.00000   0.00000   0.00000   0.00000
       z     0.00000   0.00000   0.00000   0.00000   0.00000   0.00000
-------------------------------------------------------------------------------


  Static dielectric constant tensor : 

-------------------------------------------------------------------------------
              x         y         z
-------------------------------------------------------------------------------
       x     0.99096   0.00000   0.00000
       y     0.00000   0.99096   0.00000
       z     0.00000   0.00000   0.86558
--------------------------------------------------------------------------------

  High frequency dielectric constant tensor : 

-------------------------------------------------------------------------------
              x         y         z
-------------------------------------------------------------------------------
       x     1.43841   0.00000   0.00000
       y     0.00000   1.43841   0.00000
       z     0.00000   0.00000   1.41821
-------------------------------------------------------------------------------

  Static refractive indices : 

-------------------------------------------------------------------------------
    1 =    0.93036      2 =    0.99547      3 =    0.99547
-------------------------------------------------------------------------------

  High frequency refractive indices : 

-------------------------------------------------------------------------------
    1 =    1.19089      2 =    1.19934      3 =    1.19934
-------------------------------------------------------------------------------


  Time to end of optimisation =       0.0459 seconds


  Peak dynamic memory used =       0.59 MB 


  Timing analysis for GULP :

--------------------------------------------------------------------------------
  Task / Subroutine                                          Time (Seconds)
--------------------------------------------------------------------------------
  Calculation of reciprocal space energy and derivatives          0.0009
  Calculation of reciprocal space energy using symmetry           0.0036
  Calculation of real space energy and derivatives                0.0040
  Calculation of real space energy using symmetry                 0.0336
  Symmetry generation of equivalent positions                     0.0004
--------------------------------------------------------------------------------
  Total CPU time                                                  0.0460
--------------------------------------------------------------------------------


  CIF file written as perov.cif                                               


  Job Finished at 12:49.36 22nd February   2017                               

