********************************************************************************
*                       GENERAL UTILITY LATTICE PROGRAM                        *
*                                 Julian Gale                                  *
*                      Nanochemistry Research Institute                        *
*                           Department of Chemistry                            *
*                    Curtin University, Western Australia                      *
********************************************************************************
* Version = 4.3.2 * Last modified =  3rd March 2015                            *
********************************************************************************
*  optimise     - perform optimisation run                                     *
*  conp         - constant pressure calculation                                *
*  property     - calculate properties for final geometry                      *
********************************************************************************

  Job Started  at 12:49.34 22nd February   2017                               

  Number of CPUs =     1


  Total number of configurations input =   1

********************************************************************************
*  Input for Configuration =   1                                               *
********************************************************************************

  Formula = K2Zn2F6                                                     

  Number of irreducible atoms/shells =       6


  Total number atoms/shells =      16

  Dimensionality = 3               :  Bulk   


  Symmetry :

  Crystal family                   :  Tetragonal  
  Crystal class  (Groth - 1921)    :  Ditetragonal Dipyramidal             

  Space group (centrosymmetric)    :  P 4/M B M       

  Patterson group                  :  P 4/m m m

  Cartesian lattice vectors (Angstroms) :

        4.200000    0.000000    0.000000
        0.000000    4.200000    0.000000
        0.000000    0.000000    4.200000

  Cell parameters (Angstroms/Degrees):

  a =       4.2000    alpha =  90.0000
  b =       4.2000    beta  =  90.0000
  c =       4.2000    gamma =  90.0000

  Initial cell volume =          74.088000 Angs**3

  Temperature of configuration =  0.000     K 

  Pressure of configuration =         0.000 GPa 

  Fractional coordinates of asymmetric unit :

--------------------------------------------------------------------------------
   No.  Atomic       x           y          z         Charge      Occupancy
        Label      (Frac)      (Frac)     (Frac)        (e)         (Frac)  
--------------------------------------------------------------------------------
      1 K     c    0.000000    0.000000    0.000000     0.80000    1.000000    
      2 Zn    c    0.000000    0.500000    0.000000     2.20000    1.000000    
      3 F     c    0.000000    0.500000    0.500000     0.37800    1.000000    
      4 F     c    0.227100 *  0.727100    0.000000     0.37800    1.000000    
      5 F     s    0.000000    0.500000    0.500000    -1.37800    1.000000    
      6 F     s    0.227100 *  0.727100    0.000000    -1.37800    1.000000    
--------------------------------------------------------------------------------


  Constraints : 

--------------------------------------------------------------------------------
  Constraint no.      Unconstrained     Constrained    Coefficient    Offset
                         Variable         Variable
--------------------------------------------------------------------------------
           1              Strain 1        Strain 2       1.00000      0.0000
           2                 4 x             4 y         1.00000      0.5000
           3                 6 x             6 y         1.00000      0.5000
--------------------------------------------------------------------------------


********************************************************************************
*  General input information                                                   *
********************************************************************************

  Species output for all configurations : 

--------------------------------------------------------------------------------
  Species    Type    Atomic    Atomic    Charge       Radii (Angs)     Library
                     Number     Mass       (e)     Cova   Ionic  VDW   Symbol
--------------------------------------------------------------------------------
    K        Core       19      39.10   0.800000   1.330  0.000  2.800          
    Zn       Core       30      65.39   2.200000   1.450  0.000  2.160          
    F        Core        9      19.00   0.378000   0.710  0.000  1.300          
    F        Shell       9       0.00  -1.378000   0.710  0.000  1.300          
--------------------------------------------------------------------------------


  Lattice summation method               =    Ewald          (3-D)
                                         =    Parry          (2-D)
                                         =    Saunders et al (1-D)
  Accuracy factor for lattice sums       =   12.000


  Time limit = Infinity

  Maximum range for interatomic potentials =    100000.000000 Angstroms

  General interatomic potentials :

--------------------------------------------------------------------------------
Atom  Types   Potential         A         B         C         D     Cutoffs(Ang)
  1     2                                                            Min    Max 
--------------------------------------------------------------------------------
K    c K    c Buckingham    0.219E+04 0.192      0.00      0.00     0.000 10.000
Zn   c F    s Buckingham    0.148E+04 0.266      0.00      0.00     0.000 10.000
F    s F    s Buckingham     912.     0.271      13.8      0.00     0.000 10.000
K    c F    s Buckingham    0.352E+04 0.267      0.00      0.00     0.000 10.000
F    c F    s Spring (c-s)   24.3      0.00      0.00      0.00     0.000  0.800
--------------------------------------------------------------------------------

********************************************************************************
*  Output for configuration   1                                                *
********************************************************************************


  Components of energy : 

--------------------------------------------------------------------------------
  Interatomic potentials     =         162.45946484 eV
  Monopole - monopole (real) =         -47.99082737 eV
  Monopole - monopole (recip)=         -70.73361850 eV
  Monopole - monopole (total)=        -118.72444586 eV
--------------------------------------------------------------------------------
  Total lattice energy       =          43.73501898 eV
--------------------------------------------------------------------------------
  Total lattice energy       =            4219.7608 kJ/(mole unit cells)
--------------------------------------------------------------------------------


  Number of variables =        4

  Maximum number of calculations  =          1000
  Maximum Hessian update interval =            10
  Maximum step size               =   1.000000000
  Maximum parameter tolerance     =   0.000010000
  Maximum function  tolerance     =   0.000010000
  Maximum gradient  tolerance     =   0.001000000
  Maximum gradient  component     =   0.010000000

  Symmetry constrained optimisation

  Symmetry used for second derivatives

  Cell parameters to be optimised using strains

  Newton-Raphson optimiser to be used

  BFGS hessian update to be used

  Start of bulk optimisation :

  Cycle:      0 Energy:        43.735019  Gnorm:    204.856358  CPU:    0.005
  ** Hessian calculated **
  Cycle:      1 Energy:       -76.615598  Gnorm:     33.197015  CPU:    0.012
  ** Hessian calculated **
  Cycle:      2 Energy:       -78.413803  Gnorm:     14.048815  CPU:    0.018
  ** Hessian calculated **
  Cycle:      3 Energy:       -78.769232  Gnorm:     14.863490  CPU:    0.023
  Cycle:      4 Energy:       -79.048784  Gnorm:      5.145204  CPU:    0.027
  Cycle:      5 Energy:       -79.151600  Gnorm:      8.448294  CPU:    0.030
  Cycle:      6 Energy:       -79.198181  Gnorm:      1.142041  CPU:    0.034
  Cycle:      7 Energy:       -79.201653  Gnorm:      0.686475  CPU:    0.038
  Cycle:      8 Energy:       -79.201890  Gnorm:      0.049807  CPU:    0.041
  Cycle:      9 Energy:       -79.201901  Gnorm:      0.055157  CPU:    0.044
  Cycle:     10 Energy:       -79.201903  Gnorm:      0.011135  CPU:    0.047
  Cycle:     11 Energy:       -79.201903  Gnorm:      0.002388  CPU:    0.050
  Cycle:     12 Energy:       -79.201903  Gnorm:      0.001095  CPU:    0.053
  ** Hessian calculated **


  **** Optimisation achieved ****


  Final energy =     -79.20190333 eV
  Final Gnorm  =       0.00008133

  Components of energy : 

--------------------------------------------------------------------------------
  Interatomic potentials     =          12.14962883 eV
  Monopole - monopole (real) =         -24.65760358 eV
  Monopole - monopole (recip)=         -66.69392857 eV
  Monopole - monopole (total)=         -91.35153215 eV
--------------------------------------------------------------------------------
  Total lattice energy       =         -79.20190333 eV
--------------------------------------------------------------------------------
  Total lattice energy       =           -7641.7730 kJ/(mole unit cells)
--------------------------------------------------------------------------------

  Final asymmetric unit coordinates :

--------------------------------------------------------------------------------
   No.  Atomic        x           y           z         Radius
        Label       (Frac)      (Frac)      (Frac)       (Angs) 
--------------------------------------------------------------------------------
     1  K     c     0.000000    0.000000    0.000000    0.000000
     2  Zn    c     0.000000    0.500000    0.000000    0.000000
     3  F     c     0.000000    0.500000    0.500000    0.000000
     4  F     c     0.305698    0.805698    0.000000    0.000000
     5  F     s     0.000000    0.500000    0.500000    0.000000
     6  F     s     0.311852    0.811852    0.000000    0.000000
--------------------------------------------------------------------------------

  Final Cartesian lattice vectors (Angstroms) :

        7.031492    0.000000    0.000000
        0.000000    7.031492    0.000000
        0.000000    0.000000    3.798622


  Final cell parameters and derivatives :

--------------------------------------------------------------------------------
       a            7.031492 Angstrom     dE/de1(xx)     0.000176 eV/strain
       b            7.031492 Angstrom     dE/de2(yy)     0.000000 eV/strain
       c            3.798622 Angstrom     dE/de3(zz)     0.000002 eV/strain
       alpha       90.000000 Degrees      dE/de4(yz)     0.000000 eV/strain
       beta        90.000000 Degrees      dE/de5(xz)     0.000000 eV/strain
       gamma       90.000000 Degrees      dE/de6(xy)     0.000000 eV/strain
--------------------------------------------------------------------------------

  Primitive cell volume =           187.811027 Angs**3

  Density of cell =      2.855687 g/cm**3

  Non-primitive cell volume =           187.811027 Angs**3


  Final internal derivatives :

--------------------------------------------------------------------------------
   No.  Atomic          a             b             c           Radius
        Label          (eV)          (eV)          (eV)        (eV/Angs)
--------------------------------------------------------------------------------
      1 K     c       0.000000      0.000000      0.000000      0.000000
      2 Zn    c       0.000000      0.000000      0.000000      0.000000
      3 F     c       0.000000      0.000000      0.000000      0.000000
      4 F     c      -0.000207      0.000000      0.000000      0.000000
      5 F     s       0.000000      0.000000      0.000000      0.000000
      6 F     s      -0.000179      0.000000      0.000000      0.000000
--------------------------------------------------------------------------------
  Maximum abs         0.000207      0.000000      0.000000      0.000000
--------------------------------------------------------------------------------


  Born effective charge tensors : 

-------------------------------------------------------------------------------
  Atom             x           y             z
-------------------------------------------------------------------------------
   1 K     x       0.6954     -0.0007      0.0000
           y       0.0007      0.6954      0.0000
           z       0.0000      0.0000      0.7989
-------------------------------------------------------------------------------
   2 Zn    x       1.6584      0.2979      0.0000
           y       0.2979      1.6584      0.0000
           z       0.0000      0.0000      1.6384
-------------------------------------------------------------------------------
   3 F     x      -0.7808     -0.0110      0.0000
           y      -0.0110     -0.7808      0.0000
           z       0.0000      0.0000     -0.7061
-------------------------------------------------------------------------------
   4 F     x      -0.7865     -0.0660      0.0000
           y      -0.0660     -0.7865      0.0000
           z       0.0000      0.0000     -0.8656
-------------------------------------------------------------------------------




  Elastic Constant Matrix: (Units=GPa)

-------------------------------------------------------------------------------
  Indices      1         2         3         4         5         6    
-------------------------------------------------------------------------------
       1     62.4967    8.2203   -2.7218    0.0000    0.0000    0.0000
       2      8.2203   62.4967   -2.7218    0.0000    0.0000    0.0000
       3     -2.7218   -2.7218  137.0129    0.0000    0.0000    0.0000
       4      0.0000    0.0000    0.0000    1.1707    0.0000    0.0000
       5      0.0000    0.0000    0.0000    0.0000    1.1707    0.0000
       6      0.0000    0.0000    0.0000    0.0000    0.0000    5.0721
-------------------------------------------------------------------------------


  Elastic Compliance Matrix: (Units=1/GPa)

-------------------------------------------------------------------------------
  Indices      1         2         3         4         5         6    
-------------------------------------------------------------------------------
       1    0.016293 -0.002131  0.000281  0.000000  0.000000  0.000000
       2   -0.002131  0.016293  0.000281  0.000000  0.000000  0.000000
       3    0.000281  0.000281  0.007310  0.000000  0.000000  0.000000
       4    0.000000  0.000000  0.000000  0.854220  0.000000  0.000000
       5    0.000000  0.000000  0.000000  0.000000  0.854220  0.000000
       6    0.000000  0.000000  0.000000  0.000000  0.000000  0.197158
-------------------------------------------------------------------------------

  Mechanical properties :

-------------------------------------------------------------------------------
  Convention :                    Reuss         Voigt         Hill
-------------------------------------------------------------------------------
  Bulk  Modulus (GPa)     =      27.20336      29.72887      28.46612
  Shear Modulus (GPa)     =       2.54987      18.76465      10.65726
-------------------------------------------------------------------------------
  Velocity S-wave (km/s)  =       0.94494       2.56339       1.93182
  Velocity P-wave (km/s)  =       3.27362       4.37855       3.86577
-------------------------------------------------------------------------------
  Compressibility (1/GPa) =    0.03676017
-------------------------------------------------------------------------------
  Stress axis :                     x             y             z
-------------------------------------------------------------------------------
  Youngs Moduli (GPa)     =      61.37464      61.37464     136.80342
-------------------------------------------------------------------------------
  Poissons Ratio (x)      =                     0.13078      -0.03849
  Poissons Ratio (y)      =       0.13078                    -0.03849
  Poissons Ratio (z)      =      -0.01727      -0.01727
-------------------------------------------------------------------------------


  Piezoelectric Strain Matrix: (Units=C/m**2)

-------------------------------------------------------------------------------
  Indices      1         2         3         4         5         6    
-------------------------------------------------------------------------------
       x     0.00000   0.00000   0.00000   0.00000   0.00000   0.00000
       y     0.00000   0.00000   0.00000   0.00000   0.00000   0.00000
       z     0.00000   0.00000   0.00000   0.00000   0.00000   0.00000
-------------------------------------------------------------------------------


  Piezoelectric Stress Matrix: (Units=10**-11 C/N)

-------------------------------------------------------------------------------
  Indices      1         2         3         4         5         6    
-------------------------------------------------------------------------------
       x     0.00000   0.00000   0.00000   0.00000   0.00000   0.00000
       y     0.00000   0.00000   0.00000   0.00000   0.00000   0.00000
       z     0.00000   0.00000   0.00000   0.00000   0.00000   0.00000
-------------------------------------------------------------------------------


  Static dielectric constant tensor : 

-------------------------------------------------------------------------------
              x         y         z
-------------------------------------------------------------------------------
       x     8.00196   0.00000   0.00000
       y     0.00000   8.00196   0.00000
       z     0.00000   0.00000   1.36850
--------------------------------------------------------------------------------

  High frequency dielectric constant tensor : 

-------------------------------------------------------------------------------
              x         y         z
-------------------------------------------------------------------------------
       x     1.39427   0.00000   0.00000
       y     0.00000   1.39427   0.00000
       z     0.00000   0.00000   1.41332
-------------------------------------------------------------------------------

  Static refractive indices : 

-------------------------------------------------------------------------------
    1 =    1.16983      2 =    2.82877      3 =    2.82877
-------------------------------------------------------------------------------

  High frequency refractive indices : 

-------------------------------------------------------------------------------
    1 =    1.18079      2 =    1.18079      3 =    1.18883
-------------------------------------------------------------------------------


  Time to end of optimisation =       0.0639 seconds


  Peak dynamic memory used =       0.59 MB 


  Timing analysis for GULP :

--------------------------------------------------------------------------------
  Task / Subroutine                                          Time (Seconds)
--------------------------------------------------------------------------------
  Calculation of reciprocal space energy and derivatives          0.0010
  Calculation of reciprocal space energy using symmetry           0.0056
  Calculation of real space energy and derivatives                0.0037
  Calculation of real space energy using symmetry                 0.0495
  Symmetry generation of equivalent positions                     0.0005
--------------------------------------------------------------------------------
  Total CPU time                                                  0.0639
--------------------------------------------------------------------------------


  CIF file written as perov.cif                                               


  Job Finished at 12:49.34 22nd February   2017                               

