********************************************************************************
*                       GENERAL UTILITY LATTICE PROGRAM                        *
*                                 Julian Gale                                  *
*                      Nanochemistry Research Institute                        *
*                           Department of Chemistry                            *
*                    Curtin University, Western Australia                      *
********************************************************************************
* Version = 4.3.2 * Last modified =  3rd March 2015                            *
********************************************************************************
*  optimise     - perform optimisation run                                     *
*  conp         - constant pressure calculation                                *
*  property     - calculate properties for final geometry                      *
********************************************************************************

  Job Started  at 12:49.38 22nd February   2017                               

  Number of CPUs =     1


  Total number of configurations input =   1

********************************************************************************
*  Input for Configuration =   1                                               *
********************************************************************************

  Formula = K2Zn2F6                                                     

  Number of irreducible atoms/shells =       6


  Total number atoms/shells =      16

  Dimensionality = 3               :  Bulk   


  Symmetry :

  Crystal family                   :  Tetragonal  
  Crystal class  (Groth - 1921)    :  Ditetragonal Dipyramidal             

  Space group (centrosymmetric)    :  P 4/M B M       

  Patterson group                  :  P 4/m m m

  Cartesian lattice vectors (Angstroms) :

        4.200000    0.000000    0.000000
        0.000000    4.200000    0.000000
        0.000000    0.000000    4.200000

  Cell parameters (Angstroms/Degrees):

  a =       4.2000    alpha =  90.0000
  b =       4.2000    beta  =  90.0000
  c =       4.2000    gamma =  90.0000

  Initial cell volume =          74.088000 Angs**3

  Temperature of configuration =  0.000     K 

  Pressure of configuration =         0.000 GPa 

  Fractional coordinates of asymmetric unit :

--------------------------------------------------------------------------------
   No.  Atomic       x           y          z         Charge      Occupancy
        Label      (Frac)      (Frac)     (Frac)        (e)         (Frac)  
--------------------------------------------------------------------------------
      1 K     c    0.000000    0.000000    0.000000     1.50000    1.000000    
      2 Zn    c    0.000000    0.500000    0.000000     2.10000    1.000000    
      3 F     c    0.000000    0.500000    0.500000     0.37800    1.000000    
      4 F     c    0.227100 *  0.727100    0.000000     0.37800    1.000000    
      5 F     s    0.000000    0.500000    0.500000    -1.57800    1.000000    
      6 F     s    0.227100 *  0.727100    0.000000    -1.57800    1.000000    
--------------------------------------------------------------------------------


  Constraints : 

--------------------------------------------------------------------------------
  Constraint no.      Unconstrained     Constrained    Coefficient    Offset
                         Variable         Variable
--------------------------------------------------------------------------------
           1              Strain 1        Strain 2       1.00000      0.0000
           2                 4 x             4 y         1.00000      0.5000
           3                 6 x             6 y         1.00000      0.5000
--------------------------------------------------------------------------------


********************************************************************************
*  General input information                                                   *
********************************************************************************

  Species output for all configurations : 

--------------------------------------------------------------------------------
  Species    Type    Atomic    Atomic    Charge       Radii (Angs)     Library
                     Number     Mass       (e)     Cova   Ionic  VDW   Symbol
--------------------------------------------------------------------------------
    K        Core       19      39.10   1.500000   1.330  0.000  2.800          
    Zn       Core       30      65.39   2.100000   1.450  0.000  2.160          
    F        Core        9      19.00   0.378000   0.710  0.000  1.300          
    F        Shell       9       0.00  -1.578000   0.710  0.000  1.300          
--------------------------------------------------------------------------------


  Lattice summation method               =    Ewald          (3-D)
                                         =    Parry          (2-D)
                                         =    Saunders et al (1-D)
  Accuracy factor for lattice sums       =   12.000


  Time limit = Infinity

  Maximum range for interatomic potentials =    100000.000000 Angstroms

  General interatomic potentials :

--------------------------------------------------------------------------------
Atom  Types   Potential         A         B         C         D     Cutoffs(Ang)
  1     2                                                            Min    Max 
--------------------------------------------------------------------------------
K    c K    c Buckingham    0.219E+04 0.192      0.00      0.00     0.000 10.000
Zn   c F    s Buckingham    0.148E+04 0.266      0.00      0.00     0.000 10.000
F    s F    s Buckingham     912.     0.271      13.8      0.00     0.000 10.000
K    c F    s Buckingham    0.352E+04 0.267      0.00      0.00     0.000 10.000
F    c F    s Spring (c-s)   31.9      0.00      0.00      0.00     0.000  0.800
--------------------------------------------------------------------------------

********************************************************************************
*  Output for configuration   1                                                *
********************************************************************************


  Components of energy : 

--------------------------------------------------------------------------------
  Interatomic potentials     =         162.45946484 eV
  Monopole - monopole (real) =         -64.28446913 eV
  Monopole - monopole (recip)=         -91.27599998 eV
  Monopole - monopole (total)=        -155.56046910 eV
--------------------------------------------------------------------------------
  Total lattice energy       =           6.89899574 eV
--------------------------------------------------------------------------------
  Total lattice energy       =             665.6476 kJ/(mole unit cells)
--------------------------------------------------------------------------------


  Number of variables =        4

  Maximum number of calculations  =          1000
  Maximum Hessian update interval =            10
  Maximum step size               =   1.000000000
  Maximum parameter tolerance     =   0.000010000
  Maximum function  tolerance     =   0.000010000
  Maximum gradient  tolerance     =   0.001000000
  Maximum gradient  component     =   0.010000000

  Symmetry constrained optimisation

  Symmetry used for second derivatives

  Cell parameters to be optimised using strains

  Newton-Raphson optimiser to be used

  BFGS hessian update to be used

  Start of bulk optimisation :

  Cycle:      0 Energy:         6.898996  Gnorm:    198.089330  CPU:    0.005
  ** Hessian calculated **
  Cycle:      1 Energy:      -102.653410  Gnorm:     26.034998  CPU:    0.012
  ** Hessian calculated **
  Cycle:      2 Energy:      -104.320243  Gnorm:      4.630878  CPU:    0.018
  Cycle:      3 Energy:      -104.415122  Gnorm:      1.172686  CPU:    0.021
  Cycle:      4 Energy:      -104.421004  Gnorm:      0.224574  CPU:    0.024
  Cycle:      5 Energy:      -104.421286  Gnorm:      0.097373  CPU:    0.027
  Cycle:      6 Energy:      -104.421301  Gnorm:      0.009611  CPU:    0.030
  Cycle:      7 Energy:      -104.421302  Gnorm:      0.001517  CPU:    0.034


  **** Optimisation achieved ****


  Final energy =    -104.42130157 eV
  Final Gnorm  =       0.00039084

  Components of energy : 

--------------------------------------------------------------------------------
  Interatomic potentials     =          15.14993575 eV
  Monopole - monopole (real) =         -28.92974037 eV
  Monopole - monopole (recip)=         -90.64149696 eV
  Monopole - monopole (total)=        -119.57123733 eV
--------------------------------------------------------------------------------
  Total lattice energy       =        -104.42130157 eV
--------------------------------------------------------------------------------
  Total lattice energy       =          -10075.0594 kJ/(mole unit cells)
--------------------------------------------------------------------------------

  Final asymmetric unit coordinates :

--------------------------------------------------------------------------------
   No.  Atomic        x           y           z         Radius
        Label       (Frac)      (Frac)      (Frac)       (Angs) 
--------------------------------------------------------------------------------
     1  K     c     0.000000    0.000000    0.000000    0.000000
     2  Zn    c     0.000000    0.500000    0.000000    0.000000
     3  F     c     0.000000    0.500000    0.500000    0.000000
     4  F     c     0.224034    0.724034    0.000000    0.000000
     5  F     s     0.000000    0.500000    0.500000    0.000000
     6  F     s     0.221930    0.721930    0.000000    0.000000
--------------------------------------------------------------------------------

  Final Cartesian lattice vectors (Angstroms) :

        6.381007    0.000000    0.000000
        0.000000    6.381007    0.000000
        0.000000    0.000000    3.694608


  Final cell parameters and derivatives :

--------------------------------------------------------------------------------
       a            6.381007 Angstrom     dE/de1(xx)     0.000081 eV/strain
       b            6.381007 Angstrom     dE/de2(yy)     0.000000 eV/strain
       c            3.694608 Angstrom     dE/de3(zz)     0.000037 eV/strain
       alpha       90.000000 Degrees      dE/de4(yz)     0.000000 eV/strain
       beta        90.000000 Degrees      dE/de5(xz)     0.000000 eV/strain
       gamma       90.000000 Degrees      dE/de6(xy)     0.000000 eV/strain
--------------------------------------------------------------------------------

  Primitive cell volume =           150.434293 Angs**3

  Density of cell =      3.565207 g/cm**3

  Non-primitive cell volume =           150.434293 Angs**3


  Final internal derivatives :

--------------------------------------------------------------------------------
   No.  Atomic          a             b             c           Radius
        Label          (eV)          (eV)          (eV)        (eV/Angs)
--------------------------------------------------------------------------------
      1 K     c       0.000000      0.000000      0.000000      0.000000
      2 Zn    c       0.000000      0.000000      0.000000      0.000000
      3 F     c       0.000000      0.000000      0.000000      0.000000
      4 F     c      -0.000833      0.000000      0.000000      0.000000
      5 F     s       0.000000      0.000000      0.000000      0.000000
      6 F     s       0.001320      0.000000      0.000000      0.000000
--------------------------------------------------------------------------------
  Maximum abs         0.001320      0.000000      0.000000      0.000000
--------------------------------------------------------------------------------


  Born effective charge tensors : 

-------------------------------------------------------------------------------
  Atom             x           y             z
-------------------------------------------------------------------------------
   1 K     x       1.2318     -0.0033      0.0000
           y       0.0033      1.2318      0.0000
           z       0.0000      0.0000      1.4804
-------------------------------------------------------------------------------
   2 Zn    x       1.9977     -0.1504      0.0000
           y      -0.1504      1.9977      0.0000
           z       0.0000      0.0000      1.4337
-------------------------------------------------------------------------------
   3 F     x      -1.0853      0.0109      0.0000
           y       0.0109     -1.0853      0.0000
           z       0.0000      0.0000     -0.8814
-------------------------------------------------------------------------------
   4 F     x      -1.0721     -0.2906      0.0000
           y      -0.2906     -1.0721      0.0000
           z       0.0000      0.0000     -1.0164
-------------------------------------------------------------------------------




  Elastic Constant Matrix: (Units=GPa)

-------------------------------------------------------------------------------
  Indices      1         2         3         4         5         6    
-------------------------------------------------------------------------------
       1    167.5776   41.9605   -5.5439    0.0000    0.0000    0.0000
       2     41.9605  167.5776   -5.5439    0.0000    0.0000    0.0000
       3     -5.5439   -5.5439  192.6626    0.0000    0.0000    0.0000
       4      0.0000    0.0000    0.0000    6.5630    0.0000    0.0000
       5      0.0000    0.0000    0.0000    0.0000    6.5630    0.0000
       6      0.0000    0.0000    0.0000    0.0000    0.0000   50.3939
-------------------------------------------------------------------------------


  Elastic Compliance Matrix: (Units=1/GPa)

-------------------------------------------------------------------------------
  Indices      1         2         3         4         5         6    
-------------------------------------------------------------------------------
       1    0.006370 -0.001591  0.000138  0.000000  0.000000  0.000000
       2   -0.001591  0.006370  0.000138  0.000000  0.000000  0.000000
       3    0.000138  0.000138  0.005198  0.000000  0.000000  0.000000
       4    0.000000  0.000000  0.000000  0.152368  0.000000  0.000000
       5    0.000000  0.000000  0.000000  0.000000  0.152368  0.000000
       6    0.000000  0.000000  0.000000  0.000000  0.000000  0.019844
-------------------------------------------------------------------------------

  Mechanical properties :

-------------------------------------------------------------------------------
  Convention :                    Reuss         Voigt         Hill
-------------------------------------------------------------------------------
  Bulk  Modulus (GPa)     =      65.32599      65.50701      65.41650
  Shear Modulus (GPa)     =      14.27540      45.83368      30.05454
-------------------------------------------------------------------------------
  Velocity S-wave (km/s)  =       2.00102       3.58550       2.90344
  Velocity P-wave (km/s)  =       4.86436       5.95945       5.43953
-------------------------------------------------------------------------------
  Compressibility (1/GPa) =    0.01530784
-------------------------------------------------------------------------------
  Stress axis :                     x             y             z
-------------------------------------------------------------------------------
  Youngs Moduli (GPa)     =     156.98124     156.98124     192.36927
-------------------------------------------------------------------------------
  Poissons Ratio (x)      =                     0.24968      -0.02646
  Poissons Ratio (y)      =       0.24968                    -0.02646
  Poissons Ratio (z)      =      -0.02159      -0.02159
-------------------------------------------------------------------------------


  Piezoelectric Strain Matrix: (Units=C/m**2)

-------------------------------------------------------------------------------
  Indices      1         2         3         4         5         6    
-------------------------------------------------------------------------------
       x     0.00000   0.00000   0.00000   0.00000   0.00000   0.00000
       y     0.00000   0.00000   0.00000   0.00000   0.00000   0.00000
       z     0.00000   0.00000   0.00000   0.00000   0.00000   0.00000
-------------------------------------------------------------------------------


  Piezoelectric Stress Matrix: (Units=10**-11 C/N)

-------------------------------------------------------------------------------
  Indices      1         2         3         4         5         6    
-------------------------------------------------------------------------------
       x     0.00000   0.00000   0.00000   0.00000   0.00000   0.00000
       y     0.00000   0.00000   0.00000   0.00000   0.00000   0.00000
       z     0.00000   0.00000   0.00000   0.00000   0.00000   0.00000
-------------------------------------------------------------------------------


  Static dielectric constant tensor : 

-------------------------------------------------------------------------------
              x         y         z
-------------------------------------------------------------------------------
       x    -0.98931   0.00000   0.00000
       y     0.00000  -0.98931   0.00000
       z     0.00000   0.00000   0.61676
--------------------------------------------------------------------------------

  High frequency dielectric constant tensor : 

-------------------------------------------------------------------------------
              x         y         z
-------------------------------------------------------------------------------
       x     1.54430   0.00000   0.00000
       y     0.00000   1.54430   0.00000
       z     0.00000   0.00000   1.50710
-------------------------------------------------------------------------------

  Static refractive indices : 

-------------------------------------------------------------------------------
    1 =   -0.99464      2 =   -0.99464      3 =    0.78534
-------------------------------------------------------------------------------

  High frequency refractive indices : 

-------------------------------------------------------------------------------
    1 =    1.22764      2 =    1.24270      3 =    1.24270
-------------------------------------------------------------------------------


  Time to end of optimisation =       0.0423 seconds


  Peak dynamic memory used =       0.59 MB 


  Timing analysis for GULP :

--------------------------------------------------------------------------------
  Task / Subroutine                                          Time (Seconds)
--------------------------------------------------------------------------------
  Calculation of reciprocal space energy and derivatives          0.0009
  Calculation of reciprocal space energy using symmetry           0.0033
  Calculation of real space energy and derivatives                0.0040
  Calculation of real space energy using symmetry                 0.0305
  Symmetry generation of equivalent positions                     0.0004
--------------------------------------------------------------------------------
  Total CPU time                                                  0.0424
--------------------------------------------------------------------------------


  CIF file written as perov.cif                                               


  Job Finished at 12:49.38 22nd February   2017                               

