********************************************************************************
*                       GENERAL UTILITY LATTICE PROGRAM                        *
*                                 Julian Gale                                  *
*                      Nanochemistry Research Institute                        *
*                           Department of Chemistry                            *
*                    Curtin University, Western Australia                      *
********************************************************************************
* Version = 4.3.2 * Last modified =  3rd March 2015                            *
********************************************************************************
*  optimise     - perform optimisation run                                     *
*  conp         - constant pressure calculation                                *
*  property     - calculate properties for final geometry                      *
********************************************************************************

  Job Started  at 12:49.31 22nd February   2017                               

  Number of CPUs =     1


  Total number of configurations input =   1

********************************************************************************
*  Input for Configuration =   1                                               *
********************************************************************************

  Formula = K2Zn2F6                                                     

  Number of irreducible atoms/shells =       6


  Total number atoms/shells =      16

  Dimensionality = 3               :  Bulk   


  Symmetry :

  Crystal family                   :  Tetragonal  
  Crystal class  (Groth - 1921)    :  Ditetragonal Dipyramidal             

  Space group (centrosymmetric)    :  P 4/M B M       

  Patterson group                  :  P 4/m m m

  Cartesian lattice vectors (Angstroms) :

        4.200000    0.000000    0.000000
        0.000000    4.200000    0.000000
        0.000000    0.000000    4.200000

  Cell parameters (Angstroms/Degrees):

  a =       4.2000    alpha =  90.0000
  b =       4.2000    beta  =  90.0000
  c =       4.2000    gamma =  90.0000

  Initial cell volume =          74.088000 Angs**3

  Temperature of configuration =  0.000     K 

  Pressure of configuration =         0.000 GPa 

  Fractional coordinates of asymmetric unit :

--------------------------------------------------------------------------------
   No.  Atomic       x           y          z         Charge      Occupancy
        Label      (Frac)      (Frac)     (Frac)        (e)         (Frac)  
--------------------------------------------------------------------------------
      1 K     c    0.000000    0.000000    0.000000     0.50000    1.000000    
      2 Zn    c    0.000000    0.500000    0.000000     2.30000    1.000000    
      3 F     c    0.000000    0.500000    0.500000     0.37800    1.000000    
      4 F     c    0.227100 *  0.727100    0.000000     0.37800    1.000000    
      5 F     s    0.000000    0.500000    0.500000    -1.31133    1.000000    
      6 F     s    0.227100 *  0.727100    0.000000    -1.31133    1.000000    
--------------------------------------------------------------------------------


  Constraints : 

--------------------------------------------------------------------------------
  Constraint no.      Unconstrained     Constrained    Coefficient    Offset
                         Variable         Variable
--------------------------------------------------------------------------------
           1              Strain 1        Strain 2       1.00000      0.0000
           2                 4 x             4 y         1.00000      0.5000
           3                 6 x             6 y         1.00000      0.5000
--------------------------------------------------------------------------------


********************************************************************************
*  General input information                                                   *
********************************************************************************

  Species output for all configurations : 

--------------------------------------------------------------------------------
  Species    Type    Atomic    Atomic    Charge       Radii (Angs)     Library
                     Number     Mass       (e)     Cova   Ionic  VDW   Symbol
--------------------------------------------------------------------------------
    K        Core       19      39.10   0.500000   1.330  0.000  2.800          
    Zn       Core       30      65.39   2.300000   1.450  0.000  2.160          
    F        Core        9      19.00   0.378000   0.710  0.000  1.300          
    F        Shell       9       0.00  -1.311333   0.710  0.000  1.300          
--------------------------------------------------------------------------------


  Lattice summation method               =    Ewald          (3-D)
                                         =    Parry          (2-D)
                                         =    Saunders et al (1-D)
  Accuracy factor for lattice sums       =   12.000


  Time limit = Infinity

  Maximum range for interatomic potentials =    100000.000000 Angstroms

  General interatomic potentials :

--------------------------------------------------------------------------------
Atom  Types   Potential         A         B         C         D     Cutoffs(Ang)
  1     2                                                            Min    Max 
--------------------------------------------------------------------------------
K    c K    c Buckingham    0.219E+04 0.192      0.00      0.00     0.000 10.000
Zn   c F    s Buckingham    0.148E+04 0.266      0.00      0.00     0.000 10.000
F    s F    s Buckingham     912.     0.271      13.8      0.00     0.000 10.000
K    c F    s Buckingham    0.352E+04 0.267      0.00      0.00     0.000 10.000
F    c F    s Spring (c-s)   22.0      0.00      0.00      0.00     0.000  0.800
--------------------------------------------------------------------------------

********************************************************************************
*  Output for configuration   1                                                *
********************************************************************************


  Components of energy : 

--------------------------------------------------------------------------------
  Interatomic potentials     =         162.45946484 eV
  Monopole - monopole (real) =         -44.38204791 eV
  Monopole - monopole (recip)=         -68.15227939 eV
  Monopole - monopole (total)=        -112.53432730 eV
--------------------------------------------------------------------------------
  Total lattice energy       =          49.92513754 eV
--------------------------------------------------------------------------------
  Total lattice energy       =            4817.0126 kJ/(mole unit cells)
--------------------------------------------------------------------------------


  Number of variables =        4

  Maximum number of calculations  =          1000
  Maximum Hessian update interval =            10
  Maximum step size               =   1.000000000
  Maximum parameter tolerance     =   0.000010000
  Maximum function  tolerance     =   0.000010000
  Maximum gradient  tolerance     =   0.001000000
  Maximum gradient  component     =   0.010000000

  Symmetry constrained optimisation

  Symmetry used for second derivatives

  Cell parameters to be optimised using strains

  Newton-Raphson optimiser to be used

  BFGS hessian update to be used

  Start of bulk optimisation :

  Cycle:      0 Energy:        49.925138  Gnorm:    205.576188  CPU:    0.005
  ** Hessian calculated **
  Cycle:      1 Energy:       -72.040005  Gnorm:     35.532668  CPU:    0.012
  ** Hessian calculated **
  Cycle:      2 Energy:       -73.836949  Gnorm:     14.908119  CPU:    0.018
  ** Hessian calculated **
  Cycle:      3 Energy:       -74.005908  Gnorm:      5.601322  CPU:    0.023
  Cycle:      4 Energy:       -74.230981  Gnorm:      7.451978  CPU:    0.027
  Cycle:      5 Energy:       -74.829689  Gnorm:      7.488662  CPU:    0.031
  Cycle:      6 Energy:       -75.139369  Gnorm:      6.486885  CPU:    0.034
  Cycle:      7 Energy:       -75.270258  Gnorm:      6.762601  CPU:    0.038
  Cycle:      8 Energy:       -75.431405  Gnorm:      5.360892  CPU:    0.042
  Cycle:      9 Energy:       -75.503165  Gnorm:      3.190361  CPU:    0.045
  Cycle:     10 Energy:       -75.518632  Gnorm:      0.747493  CPU:    0.049
  Cycle:     11 Energy:       -75.519855  Gnorm:      0.325254  CPU:    0.053
  Cycle:     12 Energy:       -75.520314  Gnorm:      0.314406  CPU:    0.056
  ** Hessian calculated **
  Cycle:     13 Energy:       -75.520552  Gnorm:      0.008969  CPU:    0.061
  Cycle:     14 Energy:       -75.520554  Gnorm:      0.010691  CPU:    0.065
  Cycle:     15 Energy:       -75.520554  Gnorm:      0.003880  CPU:    0.068


  **** Optimisation achieved ****


  Final energy =     -75.52055431 eV
  Final Gnorm  =       0.00084093

  Components of energy : 

--------------------------------------------------------------------------------
  Interatomic potentials     =          12.19820369 eV
  Monopole - monopole (real) =         -25.85235282 eV
  Monopole - monopole (recip)=         -61.86640518 eV
  Monopole - monopole (total)=         -87.71875800 eV
--------------------------------------------------------------------------------
  Total lattice energy       =         -75.52055431 eV
--------------------------------------------------------------------------------
  Total lattice energy       =           -7286.5791 kJ/(mole unit cells)
--------------------------------------------------------------------------------

  Final asymmetric unit coordinates :

--------------------------------------------------------------------------------
   No.  Atomic        x           y           z         Radius
        Label       (Frac)      (Frac)      (Frac)       (Angs) 
--------------------------------------------------------------------------------
     1  K     c     0.000000    0.000000    0.000000    0.000000
     2  Zn    c     0.000000    0.500000    0.000000    0.000000
     3  F     c     0.000000    0.500000    0.500000    0.000000
     4  F     c     0.316504    0.816504    0.000000    0.000000
     5  F     s     0.000000    0.500000    0.500000    0.000000
     6  F     s     0.324731    0.824731    0.000000    0.000000
--------------------------------------------------------------------------------

  Final Cartesian lattice vectors (Angstroms) :

        7.367076    0.000000    0.000000
        0.000000    7.367076    0.000000
        0.000000    0.000000    3.821682


  Final cell parameters and derivatives :

--------------------------------------------------------------------------------
       a            7.367076 Angstrom     dE/de1(xx)    -0.001661 eV/strain
       b            7.367076 Angstrom     dE/de2(yy)     0.000000 eV/strain
       c            3.821682 Angstrom     dE/de3(zz)     0.000627 eV/strain
       alpha       90.000000 Degrees      dE/de4(yz)     0.000000 eV/strain
       beta        90.000000 Degrees      dE/de5(xz)     0.000000 eV/strain
       gamma       90.000000 Degrees      dE/de6(xy)     0.000000 eV/strain
--------------------------------------------------------------------------------

  Primitive cell volume =           207.417225 Angs**3

  Density of cell =      2.585752 g/cm**3

  Non-primitive cell volume =           207.417225 Angs**3


  Final internal derivatives :

--------------------------------------------------------------------------------
   No.  Atomic          a             b             c           Radius
        Label          (eV)          (eV)          (eV)        (eV/Angs)
--------------------------------------------------------------------------------
      1 K     c       0.000000      0.000000      0.000000      0.000000
      2 Zn    c       0.000000      0.000000      0.000000      0.000000
      3 F     c       0.000000      0.000000      0.000000      0.000000
      4 F     c       0.001585      0.000000      0.000000      0.000000
      5 F     s       0.000000      0.000000      0.000000      0.000000
      6 F     s       0.002377      0.000000      0.000000      0.000000
--------------------------------------------------------------------------------
  Maximum abs         0.002377      0.000000      0.000000      0.000000
--------------------------------------------------------------------------------


  Born effective charge tensors : 

-------------------------------------------------------------------------------
  Atom             x           y             z
-------------------------------------------------------------------------------
   1 K     x       0.4323     -0.0008      0.0000
           y       0.0008      0.4323      0.0000
           z       0.0000      0.0000      0.5054
-------------------------------------------------------------------------------
   2 Zn    x       1.5903      0.3483      0.0000
           y       0.3483      1.5903      0.0000
           z       0.0000      0.0000      1.7759
-------------------------------------------------------------------------------
   3 F     x      -0.6729     -0.0101      0.0000
           y      -0.0101     -0.6729      0.0000
           z       0.0000      0.0000     -0.6531
-------------------------------------------------------------------------------
   4 F     x      -0.6749      0.0095      0.0000
           y       0.0095     -0.6749      0.0000
           z       0.0000      0.0000     -0.8141
-------------------------------------------------------------------------------




  Elastic Constant Matrix: (Units=GPa)

-------------------------------------------------------------------------------
  Indices      1         2         3         4         5         6    
-------------------------------------------------------------------------------
       1     35.6355    2.5376   -1.7653    0.0000    0.0000    0.0000
       2      2.5376   35.6355   -1.7653    0.0000    0.0000    0.0000
       3     -1.7653   -1.7653  122.0381    0.0000    0.0000    0.0000
       4      0.0000    0.0000    0.0000    0.3910    0.0000    0.0000
       5      0.0000    0.0000    0.0000    0.0000    0.3910    0.0000
       6      0.0000    0.0000    0.0000    0.0000    0.0000   -0.8873
-------------------------------------------------------------------------------


  Elastic Compliance Matrix: (Units=1/GPa)

-------------------------------------------------------------------------------
  Indices      1         2         3         4         5         6    
-------------------------------------------------------------------------------
       1    0.028222 -0.001991  0.000379  0.000000  0.000000  0.000000
       2   -0.001991  0.028222  0.000379  0.000000  0.000000  0.000000
       3    0.000379  0.000379  0.008205  0.000000  0.000000  0.000000
       4    0.000000  0.000000  0.000000  2.557650  0.000000  0.000000
       5    0.000000  0.000000  0.000000  0.000000  2.557650  0.000000
       6    0.000000  0.000000  0.000000  0.000000  0.000000 -1.126980
-------------------------------------------------------------------------------

  Mechanical properties :

-------------------------------------------------------------------------------
  Convention :                    Reuss         Voigt         Hill
-------------------------------------------------------------------------------
  Bulk  Modulus (GPa)     =      16.08078      21.25811      18.66945
  Shear Modulus (GPa)     =       1.22664      12.93241       7.07953
-------------------------------------------------------------------------------
  Velocity S-wave (km/s)  =       0.68876       2.23638       1.65466
  Velocity P-wave (km/s)  =       2.61754       3.85873       3.29707
-------------------------------------------------------------------------------
  Compressibility (1/GPa) =    0.06218604
-------------------------------------------------------------------------------
  Stress axis :                     x             y             z
-------------------------------------------------------------------------------
  Youngs Moduli (GPa)     =      35.43279      35.43279     121.87481
-------------------------------------------------------------------------------
  Poissons Ratio (x)      =                     0.07054      -0.04624
  Poissons Ratio (y)      =       0.07054                    -0.04624
  Poissons Ratio (z)      =      -0.01344      -0.01344
-------------------------------------------------------------------------------


  Piezoelectric Strain Matrix: (Units=C/m**2)

-------------------------------------------------------------------------------
  Indices      1         2         3         4         5         6    
-------------------------------------------------------------------------------
       x     0.00000   0.00000   0.00000   0.00000   0.00000   0.00000
       y     0.00000   0.00000   0.00000   0.00000   0.00000   0.00000
       z     0.00000   0.00000   0.00000   0.00000   0.00000   0.00000
-------------------------------------------------------------------------------


  Piezoelectric Stress Matrix: (Units=10**-11 C/N)

-------------------------------------------------------------------------------
  Indices      1         2         3         4         5         6    
-------------------------------------------------------------------------------
       x     0.00000   0.00000   0.00000   0.00000   0.00000   0.00000
       y     0.00000   0.00000   0.00000   0.00000   0.00000   0.00000
       z     0.00000   0.00000   0.00000   0.00000   0.00000   0.00000
-------------------------------------------------------------------------------


  Static dielectric constant tensor : 

-------------------------------------------------------------------------------
              x         y         z
-------------------------------------------------------------------------------
       x    22.62468   0.00000   0.00000
       y     0.00000  22.62468   0.00000
       z     0.00000   0.00000   1.93654
--------------------------------------------------------------------------------

  High frequency dielectric constant tensor : 

-------------------------------------------------------------------------------
              x         y         z
-------------------------------------------------------------------------------
       x     1.33736   0.00000   0.00000
       y     0.00000   1.33736   0.00000
       z     0.00000   0.00000   1.37760
-------------------------------------------------------------------------------

  Static refractive indices : 

-------------------------------------------------------------------------------
    1 =    1.39160      2 =    4.75654      3 =    4.75654
-------------------------------------------------------------------------------

  High frequency refractive indices : 

-------------------------------------------------------------------------------
    1 =    1.15644      2 =    1.15644      3 =    1.17371
-------------------------------------------------------------------------------


  Time to end of optimisation =       0.0764 seconds


  Peak dynamic memory used =       0.59 MB 


  Timing analysis for GULP :

--------------------------------------------------------------------------------
  Task / Subroutine                                          Time (Seconds)
--------------------------------------------------------------------------------
  Calculation of reciprocal space energy and derivatives          0.0011
  Calculation of reciprocal space energy using symmetry           0.0069
  Calculation of real space energy and derivatives                0.0039
  Calculation of real space energy using symmetry                 0.0604
  Symmetry generation of equivalent positions                     0.0005
--------------------------------------------------------------------------------
  Total CPU time                                                  0.0764
--------------------------------------------------------------------------------


  CIF file written as perov.cif                                               


  Job Finished at 12:49.32 22nd February   2017                               

