********************************************************************************
*                       GENERAL UTILITY LATTICE PROGRAM                        *
*                                 Julian Gale                                  *
*                      Nanochemistry Research Institute                        *
*                           Department of Chemistry                            *
*                    Curtin University, Western Australia                      *
********************************************************************************
* Version = 4.3.2 * Last modified =  3rd March 2015                            *
********************************************************************************
*  optimise     - perform optimisation run                                     *
*  conp         - constant pressure calculation                                *
*  property     - calculate properties for final geometry                      *
********************************************************************************

  Job Started  at 12:49.31 22nd February   2017                               

  Number of CPUs =     1


  Total number of configurations input =   1

********************************************************************************
*  Input for Configuration =   1                                               *
********************************************************************************

  Formula = K2Zn2F6                                                     

  Number of irreducible atoms/shells =       6


  Total number atoms/shells =      16

  Dimensionality = 3               :  Bulk   


  Symmetry :

  Crystal family                   :  Tetragonal  
  Crystal class  (Groth - 1921)    :  Ditetragonal Dipyramidal             

  Space group (centrosymmetric)    :  P 4/M B M       

  Patterson group                  :  P 4/m m m

  Cartesian lattice vectors (Angstroms) :

        4.200000    0.000000    0.000000
        0.000000    4.200000    0.000000
        0.000000    0.000000    4.200000

  Cell parameters (Angstroms/Degrees):

  a =       4.2000    alpha =  90.0000
  b =       4.2000    beta  =  90.0000
  c =       4.2000    gamma =  90.0000

  Initial cell volume =          74.088000 Angs**3

  Temperature of configuration =  0.000     K 

  Pressure of configuration =         0.000 GPa 

  Fractional coordinates of asymmetric unit :

--------------------------------------------------------------------------------
   No.  Atomic       x           y          z         Charge      Occupancy
        Label      (Frac)      (Frac)     (Frac)        (e)         (Frac)  
--------------------------------------------------------------------------------
      1 K     c    0.000000    0.000000    0.000000     0.50000    1.000000    
      2 Zn    c    0.000000    0.500000    0.000000     2.20000    1.000000    
      3 F     c    0.000000    0.500000    0.500000     0.37800    1.000000    
      4 F     c    0.227100 *  0.727100    0.000000     0.37800    1.000000    
      5 F     s    0.000000    0.500000    0.500000    -1.27800    1.000000    
      6 F     s    0.227100 *  0.727100    0.000000    -1.27800    1.000000    
--------------------------------------------------------------------------------


  Constraints : 

--------------------------------------------------------------------------------
  Constraint no.      Unconstrained     Constrained    Coefficient    Offset
                         Variable         Variable
--------------------------------------------------------------------------------
           1              Strain 1        Strain 2       1.00000      0.0000
           2                 4 x             4 y         1.00000      0.5000
           3                 6 x             6 y         1.00000      0.5000
--------------------------------------------------------------------------------


********************************************************************************
*  General input information                                                   *
********************************************************************************

  Species output for all configurations : 

--------------------------------------------------------------------------------
  Species    Type    Atomic    Atomic    Charge       Radii (Angs)     Library
                     Number     Mass       (e)     Cova   Ionic  VDW   Symbol
--------------------------------------------------------------------------------
    K        Core       19      39.10   0.500000   1.330  0.000  2.800          
    Zn       Core       30      65.39   2.200000   1.450  0.000  2.160          
    F        Core        9      19.00   0.378000   0.710  0.000  1.300          
    F        Shell       9       0.00  -1.278000   0.710  0.000  1.300          
--------------------------------------------------------------------------------


  Lattice summation method               =    Ewald          (3-D)
                                         =    Parry          (2-D)
                                         =    Saunders et al (1-D)
  Accuracy factor for lattice sums       =   12.000


  Time limit = Infinity

  Maximum range for interatomic potentials =    100000.000000 Angstroms

  General interatomic potentials :

--------------------------------------------------------------------------------
Atom  Types   Potential         A         B         C         D     Cutoffs(Ang)
  1     2                                                            Min    Max 
--------------------------------------------------------------------------------
K    c K    c Buckingham    0.219E+04 0.192      0.00      0.00     0.000 10.000
Zn   c F    s Buckingham    0.148E+04 0.266      0.00      0.00     0.000 10.000
F    s F    s Buckingham     912.     0.271      13.8      0.00     0.000 10.000
K    c F    s Buckingham    0.352E+04 0.267      0.00      0.00     0.000 10.000
F    c F    s Spring (c-s)   20.9      0.00      0.00      0.00     0.000  0.800
--------------------------------------------------------------------------------

********************************************************************************
*  Output for configuration   1                                                *
********************************************************************************


  Components of energy : 

--------------------------------------------------------------------------------
  Interatomic potentials     =         162.45946484 eV
  Monopole - monopole (real) =         -41.06800874 eV
  Monopole - monopole (recip)=         -62.84863183 eV
  Monopole - monopole (total)=        -103.91664057 eV
--------------------------------------------------------------------------------
  Total lattice energy       =          58.54282427 eV
--------------------------------------------------------------------------------
  Total lattice energy       =            5648.4876 kJ/(mole unit cells)
--------------------------------------------------------------------------------


  Number of variables =        4

  Maximum number of calculations  =          1000
  Maximum Hessian update interval =            10
  Maximum step size               =   1.000000000
  Maximum parameter tolerance     =   0.000010000
  Maximum function  tolerance     =   0.000010000
  Maximum gradient  tolerance     =   0.001000000
  Maximum gradient  component     =   0.010000000

  Symmetry constrained optimisation

  Symmetry used for second derivatives

  Cell parameters to be optimised using strains

  Newton-Raphson optimiser to be used

  BFGS hessian update to be used

  Start of bulk optimisation :

  Cycle:      0 Energy:        58.542824  Gnorm:    207.708712  CPU:    0.005
  ** Hessian calculated **
  Cycle:      1 Energy:       -65.892148  Gnorm:     34.748822  CPU:    0.012
  ** Hessian calculated **
  Cycle:      2 Energy:       -67.327785  Gnorm:     10.446502  CPU:    0.018
  ** Hessian calculated **
  Cycle:      3 Energy:       -67.436945  Gnorm:      4.281743  CPU:    0.023
  Cycle:      4 Energy:       -67.526580  Gnorm:      4.137441  CPU:    0.027
  Cycle:      5 Energy:       -67.789600  Gnorm:      5.467342  CPU:    0.032
  Cycle:      6 Energy:       -68.071022  Gnorm:      6.458210  CPU:    0.036
  Cycle:      7 Energy:       -68.122455  Gnorm:      9.506203  CPU:    0.039
  Cycle:      8 Energy:       -68.132852  Gnorm:     12.223452  CPU:    0.042
  Cycle:      9 Energy:       -68.238090  Gnorm:     16.474555  CPU:    0.047
  Cycle:     10 Energy:       -68.712197  Gnorm:      7.829931  CPU:    0.051
  Cycle:     11 Energy:       -68.813083  Gnorm:      1.976378  CPU:    0.055
  Cycle:     12 Energy:       -68.828580  Gnorm:      3.842646  CPU:    0.058
  ** Hessian calculated **
  Cycle:     13 Energy:       -68.840359  Gnorm:      0.933083  CPU:    0.063
  Cycle:     14 Energy:       -68.840816  Gnorm:      0.084907  CPU:    0.067
  Cycle:     15 Energy:       -68.840832  Gnorm:      0.034690  CPU:    0.070
  Cycle:     16 Energy:       -68.840832  Gnorm:      0.001755  CPU:    0.073
  Cycle:     17 Energy:       -68.840832  Gnorm:      0.002657  CPU:    0.076


  **** Optimisation achieved ****


  Final energy =     -68.84083204 eV
  Final Gnorm  =       0.00038785

  Components of energy : 

--------------------------------------------------------------------------------
  Interatomic potentials     =          10.86111750 eV
  Monopole - monopole (real) =         -22.48990344 eV
  Monopole - monopole (recip)=         -57.21204610 eV
  Monopole - monopole (total)=         -79.70194954 eV
--------------------------------------------------------------------------------
  Total lattice energy       =         -68.84083204 eV
--------------------------------------------------------------------------------
  Total lattice energy       =           -6642.0880 kJ/(mole unit cells)
--------------------------------------------------------------------------------

  Final asymmetric unit coordinates :

--------------------------------------------------------------------------------
   No.  Atomic        x           y           z         Radius
        Label       (Frac)      (Frac)      (Frac)       (Angs) 
--------------------------------------------------------------------------------
     1  K     c     0.000000    0.000000    0.000000    0.000000
     2  Zn    c     0.000000    0.500000    0.000000    0.000000
     3  F     c     0.000000    0.500000    0.500000    0.000000
     4  F     c     0.314459    0.814459    0.000000    0.000000
     5  F     s     0.000000    0.500000    0.500000    0.000000
     6  F     s     0.322274    0.822274    0.000000    0.000000
--------------------------------------------------------------------------------

  Final Cartesian lattice vectors (Angstroms) :

        7.407798    0.000000    0.000000
        0.000000    7.407798    0.000000
        0.000000    0.000000    3.876789


  Final cell parameters and derivatives :

--------------------------------------------------------------------------------
       a            7.407798 Angstrom     dE/de1(xx)    -0.000224 eV/strain
       b            7.407798 Angstrom     dE/de2(yy)     0.000000 eV/strain
       c            3.876789 Angstrom     dE/de3(zz)     0.000002 eV/strain
       alpha       90.000000 Degrees      dE/de4(yz)     0.000000 eV/strain
       beta        90.000000 Degrees      dE/de5(xz)     0.000000 eV/strain
       gamma       90.000000 Degrees      dE/de6(xy)     0.000000 eV/strain
--------------------------------------------------------------------------------

  Primitive cell volume =           212.740637 Angs**3

  Density of cell =      2.521048 g/cm**3

  Non-primitive cell volume =           212.740637 Angs**3


  Final internal derivatives :

--------------------------------------------------------------------------------
   No.  Atomic          a             b             c           Radius
        Label          (eV)          (eV)          (eV)        (eV/Angs)
--------------------------------------------------------------------------------
      1 K     c       0.000000      0.000000      0.000000      0.000000
      2 Zn    c       0.000000      0.000000      0.000000      0.000000
      3 F     c       0.000000      0.000000      0.000000      0.000000
      4 F     c       0.001273      0.000000      0.000000      0.000000
      5 F     s       0.000000      0.000000      0.000000      0.000000
      6 F     s      -0.000858      0.000000      0.000000      0.000000
--------------------------------------------------------------------------------
  Maximum abs         0.001273      0.000000      0.000000      0.000000
--------------------------------------------------------------------------------


  Born effective charge tensors : 

-------------------------------------------------------------------------------
  Atom             x           y             z
-------------------------------------------------------------------------------
   1 K     x       0.4305     -0.0006      0.0000
           y       0.0006      0.4305      0.0000
           z       0.0000      0.0000      0.5046
-------------------------------------------------------------------------------
   2 Zn    x       1.5572      0.3239      0.0000
           y       0.3239      1.5572      0.0000
           z       0.0000      0.0000      1.6988
-------------------------------------------------------------------------------
   3 F     x      -0.6615     -0.0096      0.0000
           y      -0.0096     -0.6615      0.0000
           z       0.0000      0.0000     -0.6294
-------------------------------------------------------------------------------
   4 F     x      -0.6631     -0.0005      0.0000
           y      -0.0005     -0.6631      0.0000
           z       0.0000      0.0000     -0.7871
-------------------------------------------------------------------------------




  Elastic Constant Matrix: (Units=GPa)

-------------------------------------------------------------------------------
  Indices      1         2         3         4         5         6    
-------------------------------------------------------------------------------
       1     33.4034    2.8175   -1.5988    0.0000    0.0000    0.0000
       2      2.8175   33.4034   -1.5988    0.0000    0.0000    0.0000
       3     -1.5988   -1.5988  111.0591    0.0000    0.0000    0.0000
       4      0.0000    0.0000    0.0000    0.4758    0.0000    0.0000
       5      0.0000    0.0000    0.0000    0.0000    0.4758    0.0000
       6      0.0000    0.0000    0.0000    0.0000    0.0000   -0.5182
-------------------------------------------------------------------------------


  Elastic Compliance Matrix: (Units=1/GPa)

-------------------------------------------------------------------------------
  Indices      1         2         3         4         5         6    
-------------------------------------------------------------------------------
       1    0.030169 -0.002526  0.000398  0.000000  0.000000  0.000000
       2   -0.002526  0.030169  0.000398  0.000000  0.000000  0.000000
       3    0.000398  0.000398  0.009016  0.000000  0.000000  0.000000
       4    0.000000  0.000000  0.000000  2.101825  0.000000  0.000000
       5    0.000000  0.000000  0.000000  0.000000  2.101825  0.000000
       6    0.000000  0.000000  0.000000  0.000000  0.000000 -1.929707
-------------------------------------------------------------------------------

  Mechanical properties :

-------------------------------------------------------------------------------
  Convention :                    Reuss         Voigt         Hill
-------------------------------------------------------------------------------
  Bulk  Modulus (GPa)     =      15.17577      19.67840      17.42709
  Shear Modulus (GPa)     =       2.11084      11.96974       7.04029
-------------------------------------------------------------------------------
  Velocity S-wave (km/s)  =       0.91503       2.17897       1.67111
  Velocity P-wave (km/s)  =       2.67133       3.75981       3.26130
-------------------------------------------------------------------------------
  Compressibility (1/GPa) =    0.06589450
-------------------------------------------------------------------------------
  Stress axis :                     x             y             z
-------------------------------------------------------------------------------
  Youngs Moduli (GPa)     =      33.14642      33.14642     110.91795
-------------------------------------------------------------------------------
  Poissons Ratio (x)      =                     0.08372      -0.04414
  Poissons Ratio (y)      =       0.08372                    -0.04414
  Poissons Ratio (z)      =      -0.01319      -0.01319
-------------------------------------------------------------------------------


  Piezoelectric Strain Matrix: (Units=C/m**2)

-------------------------------------------------------------------------------
  Indices      1         2         3         4         5         6    
-------------------------------------------------------------------------------
       x     0.00000   0.00000   0.00000   0.00000   0.00000   0.00000
       y     0.00000   0.00000   0.00000   0.00000   0.00000   0.00000
       z     0.00000   0.00000   0.00000   0.00000   0.00000   0.00000
-------------------------------------------------------------------------------


  Piezoelectric Stress Matrix: (Units=10**-11 C/N)

-------------------------------------------------------------------------------
  Indices      1         2         3         4         5         6    
-------------------------------------------------------------------------------
       x     0.00000   0.00000   0.00000   0.00000   0.00000   0.00000
       y     0.00000   0.00000   0.00000   0.00000   0.00000   0.00000
       z     0.00000   0.00000   0.00000   0.00000   0.00000   0.00000
-------------------------------------------------------------------------------


  Static dielectric constant tensor : 

-------------------------------------------------------------------------------
              x         y         z
-------------------------------------------------------------------------------
       x     6.22430   0.00000   0.00000
       y     0.00000   6.22430   0.00000
       z     0.00000   0.00000   1.91113
--------------------------------------------------------------------------------

  High frequency dielectric constant tensor : 

-------------------------------------------------------------------------------
              x         y         z
-------------------------------------------------------------------------------
       x     1.33406   0.00000   0.00000
       y     0.00000   1.33406   0.00000
       z     0.00000   0.00000   1.36860
-------------------------------------------------------------------------------

  Static refractive indices : 

-------------------------------------------------------------------------------
    1 =    1.38244      2 =    2.49485      3 =    2.49485
-------------------------------------------------------------------------------

  High frequency refractive indices : 

-------------------------------------------------------------------------------
    1 =    1.15501      2 =    1.15501      3 =    1.16987
-------------------------------------------------------------------------------


  Time to end of optimisation =       0.0844 seconds


  Peak dynamic memory used =       0.59 MB 


  Timing analysis for GULP :

--------------------------------------------------------------------------------
  Task / Subroutine                                          Time (Seconds)
--------------------------------------------------------------------------------
  Calculation of reciprocal space energy and derivatives          0.0011
  Calculation of reciprocal space energy using symmetry           0.0076
  Calculation of real space energy and derivatives                0.0038
  Calculation of real space energy using symmetry                 0.0677
  Symmetry generation of equivalent positions                     0.0005
--------------------------------------------------------------------------------
  Total CPU time                                                  0.0845
--------------------------------------------------------------------------------


  CIF file written as perov.cif                                               


  Job Finished at 12:49.31 22nd February   2017                               

