********************************************************************************
*                       GENERAL UTILITY LATTICE PROGRAM                        *
*                                 Julian Gale                                  *
*                      Nanochemistry Research Institute                        *
*                           Department of Chemistry                            *
*                    Curtin University, Western Australia                      *
********************************************************************************
* Version = 4.3.2 * Last modified =  3rd March 2015                            *
********************************************************************************
*  optimise     - perform optimisation run                                     *
*  conp         - constant pressure calculation                                *
*  property     - calculate properties for final geometry                      *
********************************************************************************

  Job Started  at 12:49.34 22nd February   2017                               

  Number of CPUs =     1


  Total number of configurations input =   1

********************************************************************************
*  Input for Configuration =   1                                               *
********************************************************************************

  Formula = K2Zn2F6                                                     

  Number of irreducible atoms/shells =       6


  Total number atoms/shells =      16

  Dimensionality = 3               :  Bulk   


  Symmetry :

  Crystal family                   :  Tetragonal  
  Crystal class  (Groth - 1921)    :  Ditetragonal Dipyramidal             

  Space group (centrosymmetric)    :  P 4/M B M       

  Patterson group                  :  P 4/m m m

  Cartesian lattice vectors (Angstroms) :

        4.200000    0.000000    0.000000
        0.000000    4.200000    0.000000
        0.000000    0.000000    4.200000

  Cell parameters (Angstroms/Degrees):

  a =       4.2000    alpha =  90.0000
  b =       4.2000    beta  =  90.0000
  c =       4.2000    gamma =  90.0000

  Initial cell volume =          74.088000 Angs**3

  Temperature of configuration =  0.000     K 

  Pressure of configuration =         0.000 GPa 

  Fractional coordinates of asymmetric unit :

--------------------------------------------------------------------------------
   No.  Atomic       x           y          z         Charge      Occupancy
        Label      (Frac)      (Frac)     (Frac)        (e)         (Frac)  
--------------------------------------------------------------------------------
      1 K     c    0.000000    0.000000    0.000000     0.90000    1.000000    
      2 Zn    c    0.000000    0.500000    0.000000     2.20000    1.000000    
      3 F     c    0.000000    0.500000    0.500000     0.37800    1.000000    
      4 F     c    0.227100 *  0.727100    0.000000     0.37800    1.000000    
      5 F     s    0.000000    0.500000    0.500000    -1.41133    1.000000    
      6 F     s    0.227100 *  0.727100    0.000000    -1.41133    1.000000    
--------------------------------------------------------------------------------


  Constraints : 

--------------------------------------------------------------------------------
  Constraint no.      Unconstrained     Constrained    Coefficient    Offset
                         Variable         Variable
--------------------------------------------------------------------------------
           1              Strain 1        Strain 2       1.00000      0.0000
           2                 4 x             4 y         1.00000      0.5000
           3                 6 x             6 y         1.00000      0.5000
--------------------------------------------------------------------------------


********************************************************************************
*  General input information                                                   *
********************************************************************************

  Species output for all configurations : 

--------------------------------------------------------------------------------
  Species    Type    Atomic    Atomic    Charge       Radii (Angs)     Library
                     Number     Mass       (e)     Cova   Ionic  VDW   Symbol
--------------------------------------------------------------------------------
    K        Core       19      39.10   0.900000   1.330  0.000  2.800          
    Zn       Core       30      65.39   2.200000   1.450  0.000  2.160          
    F        Core        9      19.00   0.378000   0.710  0.000  1.300          
    F        Shell       9       0.00  -1.411333   0.710  0.000  1.300          
--------------------------------------------------------------------------------


  Lattice summation method               =    Ewald          (3-D)
                                         =    Parry          (2-D)
                                         =    Saunders et al (1-D)
  Accuracy factor for lattice sums       =   12.000


  Time limit = Infinity

  Maximum range for interatomic potentials =    100000.000000 Angstroms

  General interatomic potentials :

--------------------------------------------------------------------------------
Atom  Types   Potential         A         B         C         D     Cutoffs(Ang)
  1     2                                                            Min    Max 
--------------------------------------------------------------------------------
K    c K    c Buckingham    0.219E+04 0.192      0.00      0.00     0.000 10.000
Zn   c F    s Buckingham    0.148E+04 0.266      0.00      0.00     0.000 10.000
F    s F    s Buckingham     912.     0.271      13.8      0.00     0.000 10.000
K    c F    s Buckingham    0.352E+04 0.267      0.00      0.00     0.000 10.000
F    c F    s Spring (c-s)   25.5      0.00      0.00      0.00     0.000  0.800
--------------------------------------------------------------------------------

********************************************************************************
*  Output for configuration   1                                                *
********************************************************************************


  Components of energy : 

--------------------------------------------------------------------------------
  Interatomic potentials     =         162.45946484 eV
  Monopole - monopole (real) =         -50.52880415 eV
  Monopole - monopole (recip)=         -73.80556696 eV
  Monopole - monopole (total)=        -124.33437111 eV
--------------------------------------------------------------------------------
  Total lattice energy       =          38.12509373 eV
--------------------------------------------------------------------------------
  Total lattice energy       =            3678.4887 kJ/(mole unit cells)
--------------------------------------------------------------------------------


  Number of variables =        4

  Maximum number of calculations  =          1000
  Maximum Hessian update interval =            10
  Maximum step size               =   1.000000000
  Maximum parameter tolerance     =   0.000010000
  Maximum function  tolerance     =   0.000010000
  Maximum gradient  tolerance     =   0.001000000
  Maximum gradient  component     =   0.010000000

  Symmetry constrained optimisation

  Symmetry used for second derivatives

  Cell parameters to be optimised using strains

  Newton-Raphson optimiser to be used

  BFGS hessian update to be used

  Start of bulk optimisation :

  Cycle:      0 Energy:        38.125094  Gnorm:    203.767176  CPU:    0.005
  ** Hessian calculated **
  Cycle:      1 Energy:       -80.606778  Gnorm:     32.427357  CPU:    0.012
  ** Hessian calculated **
  Cycle:      2 Energy:       -82.553310  Gnorm:     15.838393  CPU:    0.018
  ** Hessian calculated **
  Cycle:      3 Energy:       -83.013131  Gnorm:      6.270319  CPU:    0.023
  Cycle:      4 Energy:       -83.115749  Gnorm:      3.571431  CPU:    0.027
  Cycle:      5 Energy:       -83.121210  Gnorm:      0.532284  CPU:    0.030
  Cycle:      6 Energy:       -83.121455  Gnorm:      0.037256  CPU:    0.033
  Cycle:      7 Energy:       -83.121456  Gnorm:      0.003039  CPU:    0.036
  Cycle:      8 Energy:       -83.121456  Gnorm:      0.001023  CPU:    0.039


  **** Optimisation achieved ****


  Final energy =     -83.12145584 eV
  Final Gnorm  =       0.00022627

  Components of energy : 

--------------------------------------------------------------------------------
  Interatomic potentials     =          12.65125312 eV
  Monopole - monopole (real) =         -25.50914231 eV
  Monopole - monopole (recip)=         -70.26356665 eV
  Monopole - monopole (total)=         -95.77270896 eV
--------------------------------------------------------------------------------
  Total lattice energy       =         -83.12145584 eV
--------------------------------------------------------------------------------
  Total lattice energy       =           -8019.9499 kJ/(mole unit cells)
--------------------------------------------------------------------------------

  Final asymmetric unit coordinates :

--------------------------------------------------------------------------------
   No.  Atomic        x           y           z         Radius
        Label       (Frac)      (Frac)      (Frac)       (Angs) 
--------------------------------------------------------------------------------
     1  K     c     0.000000    0.000000    0.000000    0.000000
     2  Zn    c     0.000000    0.500000    0.000000    0.000000
     3  F     c     0.000000    0.500000    0.500000    0.000000
     4  F     c     0.302635    0.802635    0.000000    0.000000
     5  F     s     0.000000    0.500000    0.500000    0.000000
     6  F     s     0.308262    0.808262    0.000000    0.000000
--------------------------------------------------------------------------------

  Final Cartesian lattice vectors (Angstroms) :

        6.918574    0.000000    0.000000
        0.000000    6.918574    0.000000
        0.000000    0.000000    3.774655


  Final cell parameters and derivatives :

--------------------------------------------------------------------------------
       a            6.918574 Angstrom     dE/de1(xx)     0.000115 eV/strain
       b            6.918574 Angstrom     dE/de2(yy)     0.000000 eV/strain
       c            3.774655 Angstrom     dE/de3(zz)     0.000012 eV/strain
       alpha       90.000000 Degrees      dE/de4(yz)     0.000000 eV/strain
       beta        90.000000 Degrees      dE/de5(xz)     0.000000 eV/strain
       gamma       90.000000 Degrees      dE/de6(xy)     0.000000 eV/strain
--------------------------------------------------------------------------------

  Primitive cell volume =           180.680175 Angs**3

  Density of cell =      2.968391 g/cm**3

  Non-primitive cell volume =           180.680175 Angs**3


  Final internal derivatives :

--------------------------------------------------------------------------------
   No.  Atomic          a             b             c           Radius
        Label          (eV)          (eV)          (eV)        (eV/Angs)
--------------------------------------------------------------------------------
      1 K     c       0.000000      0.000000      0.000000      0.000000
      2 Zn    c       0.000000      0.000000      0.000000      0.000000
      3 F     c       0.000000      0.000000      0.000000      0.000000
      4 F     c       0.000150      0.000000      0.000000      0.000000
      5 F     s       0.000000      0.000000      0.000000      0.000000
      6 F     s       0.000885      0.000000      0.000000      0.000000
--------------------------------------------------------------------------------
  Maximum abs         0.000885      0.000000      0.000000      0.000000
--------------------------------------------------------------------------------


  Born effective charge tensors : 

-------------------------------------------------------------------------------
  Atom             x           y             z
-------------------------------------------------------------------------------
   1 K     x       0.7791     -0.0005      0.0000
           y       0.0005      0.7791      0.0000
           z       0.0000      0.0000      0.8969
-------------------------------------------------------------------------------
   2 Zn    x       1.6997      0.2872      0.0000
           y       0.2872      1.6997      0.0000
           z       0.0000      0.0000      1.6194
-------------------------------------------------------------------------------
   3 F     x      -0.8226     -0.0115      0.0000
           y      -0.0115     -0.8226      0.0000
           z       0.0000      0.0000     -0.7334
-------------------------------------------------------------------------------
   4 F     x      -0.8281     -0.0915      0.0000
           y      -0.0915     -0.8281      0.0000
           z       0.0000      0.0000     -0.8915
-------------------------------------------------------------------------------




  Elastic Constant Matrix: (Units=GPa)

-------------------------------------------------------------------------------
  Indices      1         2         3         4         5         6    
-------------------------------------------------------------------------------
       1     74.7168   11.1601   -3.1605    0.0000    0.0000    0.0000
       2     11.1601   74.7168   -3.1605    0.0000    0.0000    0.0000
       3     -3.1605   -3.1605  146.2693    0.0000    0.0000    0.0000
       4      0.0000    0.0000    0.0000    1.5231    0.0000    0.0000
       5      0.0000    0.0000    0.0000    0.0000    1.5231    0.0000
       6      0.0000    0.0000    0.0000    0.0000    0.0000    8.2401
-------------------------------------------------------------------------------


  Elastic Compliance Matrix: (Units=1/GPa)

-------------------------------------------------------------------------------
  Indices      1         2         3         4         5         6    
-------------------------------------------------------------------------------
       1    0.013699 -0.002035  0.000252  0.000000  0.000000  0.000000
       2   -0.002035  0.013699  0.000252  0.000000  0.000000  0.000000
       3    0.000252  0.000252  0.006848  0.000000  0.000000  0.000000
       4    0.000000  0.000000  0.000000  0.656565  0.000000  0.000000
       5    0.000000  0.000000  0.000000  0.000000  0.656565  0.000000
       6    0.000000  0.000000  0.000000  0.000000  0.000000  0.121358
-------------------------------------------------------------------------------

  Mechanical properties :

-------------------------------------------------------------------------------
  Convention :                    Reuss         Voigt         Hill
-------------------------------------------------------------------------------
  Bulk  Modulus (GPa)     =      32.06994      33.93127      33.00060
  Shear Modulus (GPa)     =       3.37339      21.64817      12.51078
-------------------------------------------------------------------------------
  Velocity S-wave (km/s)  =       1.06604       2.70054       2.05297
  Velocity P-wave (km/s)  =       3.50985       4.59943       4.09107
-------------------------------------------------------------------------------
  Compressibility (1/GPa) =    0.03118185
-------------------------------------------------------------------------------
  Stress axis :                     x             y             z
-------------------------------------------------------------------------------
  Youngs Moduli (GPa)     =      73.00044      73.00044     146.03668
-------------------------------------------------------------------------------
  Poissons Ratio (x)      =                     0.14859      -0.03680
  Poissons Ratio (y)      =       0.14859                    -0.03680
  Poissons Ratio (z)      =      -0.01840      -0.01840
-------------------------------------------------------------------------------


  Piezoelectric Strain Matrix: (Units=C/m**2)

-------------------------------------------------------------------------------
  Indices      1         2         3         4         5         6    
-------------------------------------------------------------------------------
       x     0.00000   0.00000   0.00000   0.00000   0.00000   0.00000
       y     0.00000   0.00000   0.00000   0.00000   0.00000   0.00000
       z     0.00000   0.00000   0.00000   0.00000   0.00000   0.00000
-------------------------------------------------------------------------------


  Piezoelectric Stress Matrix: (Units=10**-11 C/N)

-------------------------------------------------------------------------------
  Indices      1         2         3         4         5         6    
-------------------------------------------------------------------------------
       x     0.00000   0.00000   0.00000   0.00000   0.00000   0.00000
       y     0.00000   0.00000   0.00000   0.00000   0.00000   0.00000
       z     0.00000   0.00000   0.00000   0.00000   0.00000   0.00000
-------------------------------------------------------------------------------


  Static dielectric constant tensor : 

-------------------------------------------------------------------------------
              x         y         z
-------------------------------------------------------------------------------
       x     7.30733   0.00000   0.00000
       y     0.00000   7.30733   0.00000
       z     0.00000   0.00000   1.22830
--------------------------------------------------------------------------------

  High frequency dielectric constant tensor : 

-------------------------------------------------------------------------------
              x         y         z
-------------------------------------------------------------------------------
       x     1.41521   0.00000   0.00000
       y     0.00000   1.41521   0.00000
       z     0.00000   0.00000   1.42841
-------------------------------------------------------------------------------

  Static refractive indices : 

-------------------------------------------------------------------------------
    1 =    1.10829      2 =    2.70321      3 =    2.70321
-------------------------------------------------------------------------------

  High frequency refractive indices : 

-------------------------------------------------------------------------------
    1 =    1.18963      2 =    1.18963      3 =    1.19516
-------------------------------------------------------------------------------


  Time to end of optimisation =       0.0477 seconds


  Peak dynamic memory used =       0.59 MB 


  Timing analysis for GULP :

--------------------------------------------------------------------------------
  Task / Subroutine                                          Time (Seconds)
--------------------------------------------------------------------------------
  Calculation of reciprocal space energy and derivatives          0.0009
  Calculation of reciprocal space energy using symmetry           0.0040
  Calculation of real space energy and derivatives                0.0038
  Calculation of real space energy using symmetry                 0.0354
  Symmetry generation of equivalent positions                     0.0004
--------------------------------------------------------------------------------
  Total CPU time                                                  0.0477
--------------------------------------------------------------------------------


  CIF file written as perov.cif                                               


  Job Finished at 12:49.35 22nd February   2017                               

