********************************************************************************
*                       GENERAL UTILITY LATTICE PROGRAM                        *
*                                 Julian Gale                                  *
*                      Nanochemistry Research Institute                        *
*                           Department of Chemistry                            *
*                    Curtin University, Western Australia                      *
********************************************************************************
* Version = 4.3.2 * Last modified =  3rd March 2015                            *
********************************************************************************
*  optimise     - perform optimisation run                                     *
*  conp         - constant pressure calculation                                *
*  property     - calculate properties for final geometry                      *
********************************************************************************

  Job Started  at 12:49.35 22nd February   2017                               

  Number of CPUs =     1


  Total number of configurations input =   1

********************************************************************************
*  Input for Configuration =   1                                               *
********************************************************************************

  Formula = K2Zn2F6                                                     

  Number of irreducible atoms/shells =       6


  Total number atoms/shells =      16

  Dimensionality = 3               :  Bulk   


  Symmetry :

  Crystal family                   :  Tetragonal  
  Crystal class  (Groth - 1921)    :  Ditetragonal Dipyramidal             

  Space group (centrosymmetric)    :  P 4/M B M       

  Patterson group                  :  P 4/m m m

  Cartesian lattice vectors (Angstroms) :

        4.200000    0.000000    0.000000
        0.000000    4.200000    0.000000
        0.000000    0.000000    4.200000

  Cell parameters (Angstroms/Degrees):

  a =       4.2000    alpha =  90.0000
  b =       4.2000    beta  =  90.0000
  c =       4.2000    gamma =  90.0000

  Initial cell volume =          74.088000 Angs**3

  Temperature of configuration =  0.000     K 

  Pressure of configuration =         0.000 GPa 

  Fractional coordinates of asymmetric unit :

--------------------------------------------------------------------------------
   No.  Atomic       x           y          z         Charge      Occupancy
        Label      (Frac)      (Frac)     (Frac)        (e)         (Frac)  
--------------------------------------------------------------------------------
      1 K     c    0.000000    0.000000    0.000000     1.00000    1.000000    
      2 Zn    c    0.000000    0.500000    0.000000     1.70000    1.000000    
      3 F     c    0.000000    0.500000    0.500000     0.37800    1.000000    
      4 F     c    0.227100 *  0.727100    0.000000     0.37800    1.000000    
      5 F     s    0.000000    0.500000    0.500000    -1.27800    1.000000    
      6 F     s    0.227100 *  0.727100    0.000000    -1.27800    1.000000    
--------------------------------------------------------------------------------


  Constraints : 

--------------------------------------------------------------------------------
  Constraint no.      Unconstrained     Constrained    Coefficient    Offset
                         Variable         Variable
--------------------------------------------------------------------------------
           1              Strain 1        Strain 2       1.00000      0.0000
           2                 4 x             4 y         1.00000      0.5000
           3                 6 x             6 y         1.00000      0.5000
--------------------------------------------------------------------------------


********************************************************************************
*  General input information                                                   *
********************************************************************************

  Species output for all configurations : 

--------------------------------------------------------------------------------
  Species    Type    Atomic    Atomic    Charge       Radii (Angs)     Library
                     Number     Mass       (e)     Cova   Ionic  VDW   Symbol
--------------------------------------------------------------------------------
    K        Core       19      39.10   1.000000   1.330  0.000  2.800          
    Zn       Core       30      65.39   1.700000   1.450  0.000  2.160          
    F        Core        9      19.00   0.378000   0.710  0.000  1.300          
    F        Shell       9       0.00  -1.278000   0.710  0.000  1.300          
--------------------------------------------------------------------------------


  Lattice summation method               =    Ewald          (3-D)
                                         =    Parry          (2-D)
                                         =    Saunders et al (1-D)
  Accuracy factor for lattice sums       =   12.000


  Time limit = Infinity

  Maximum range for interatomic potentials =    100000.000000 Angstroms

  General interatomic potentials :

--------------------------------------------------------------------------------
Atom  Types   Potential         A         B         C         D     Cutoffs(Ang)
  1     2                                                            Min    Max 
--------------------------------------------------------------------------------
K    c K    c Buckingham    0.219E+04 0.192      0.00      0.00     0.000 10.000
Zn   c F    s Buckingham    0.148E+04 0.266      0.00      0.00     0.000 10.000
F    s F    s Buckingham     912.     0.271      13.8      0.00     0.000 10.000
K    c F    s Buckingham    0.352E+04 0.267      0.00      0.00     0.000 10.000
F    c F    s Spring (c-s)   20.9      0.00      0.00      0.00     0.000  0.800
--------------------------------------------------------------------------------

********************************************************************************
*  Output for configuration   1                                                *
********************************************************************************


  Components of energy : 

--------------------------------------------------------------------------------
  Interatomic potentials     =         162.45946484 eV
  Monopole - monopole (real) =         -36.81345321 eV
  Monopole - monopole (recip)=         -52.58870018 eV
  Monopole - monopole (total)=         -89.40215339 eV
--------------------------------------------------------------------------------
  Total lattice energy       =          73.05731145 eV
--------------------------------------------------------------------------------
  Total lattice energy       =            7048.9138 kJ/(mole unit cells)
--------------------------------------------------------------------------------


  Number of variables =        4

  Maximum number of calculations  =          1000
  Maximum Hessian update interval =            10
  Maximum step size               =   1.000000000
  Maximum parameter tolerance     =   0.000010000
  Maximum function  tolerance     =   0.000010000
  Maximum gradient  tolerance     =   0.001000000
  Maximum gradient  component     =   0.010000000

  Symmetry constrained optimisation

  Symmetry used for second derivatives

  Cell parameters to be optimised using strains

  Newton-Raphson optimiser to be used

  BFGS hessian update to be used

  Start of bulk optimisation :

  Cycle:      0 Energy:        73.057311  Gnorm:    213.024056  CPU:    0.005
  ** Hessian calculated **
  Cycle:      1 Energy:       -55.085490  Gnorm:     25.887114  CPU:    0.012
  ** Hessian calculated **
  Cycle:      2 Energy:       -55.948831  Gnorm:      7.530519  CPU:    0.017
  Cycle:      3 Energy:       -56.086709  Gnorm:      2.165080  CPU:    0.021
  Cycle:      4 Energy:       -56.123290  Gnorm:      0.493379  CPU:    0.025
  Cycle:      5 Energy:       -56.129814  Gnorm:      0.406248  CPU:    0.028
  Cycle:      6 Energy:       -56.130479  Gnorm:      0.095268  CPU:    0.031
  Cycle:      7 Energy:       -56.130541  Gnorm:      0.031332  CPU:    0.034
  Cycle:      8 Energy:       -56.130546  Gnorm:      0.007805  CPU:    0.037
  Cycle:      9 Energy:       -56.130546  Gnorm:      0.003059  CPU:    0.040


  **** Optimisation achieved ****


  Final energy =     -56.13054651 eV
  Final Gnorm  =       0.00071419

  Components of energy : 

--------------------------------------------------------------------------------
  Interatomic potentials     =           7.49715421 eV
  Monopole - monopole (real) =         -12.43733141 eV
  Monopole - monopole (recip)=         -51.19036930 eV
  Monopole - monopole (total)=         -63.62770072 eV
--------------------------------------------------------------------------------
  Total lattice energy       =         -56.13054651 eV
--------------------------------------------------------------------------------
  Total lattice energy       =           -5415.7397 kJ/(mole unit cells)
--------------------------------------------------------------------------------

  Final asymmetric unit coordinates :

--------------------------------------------------------------------------------
   No.  Atomic        x           y           z         Radius
        Label       (Frac)      (Frac)      (Frac)       (Angs) 
--------------------------------------------------------------------------------
     1  K     c     0.000000    0.000000    0.000000    0.000000
     2  Zn    c     0.000000    0.500000    0.000000    0.000000
     3  F     c     0.000000    0.500000    0.500000    0.000000
     4  F     c     0.218322    0.718322    0.000000    0.000000
     5  F     s     0.000000    0.500000    0.500000    0.000000
     6  F     s     0.215643    0.715643    0.000000    0.000000
--------------------------------------------------------------------------------

  Final Cartesian lattice vectors (Angstroms) :

        6.987241    0.000000    0.000000
        0.000000    6.987241    0.000000
        0.000000    0.000000    4.044827


  Final cell parameters and derivatives :

--------------------------------------------------------------------------------
       a            6.987241 Angstrom     dE/de1(xx)     0.000052 eV/strain
       b            6.987241 Angstrom     dE/de2(yy)     0.000000 eV/strain
       c            4.044827 Angstrom     dE/de3(zz)     0.000030 eV/strain
       alpha       90.000000 Degrees      dE/de4(yz)     0.000000 eV/strain
       beta        90.000000 Degrees      dE/de5(xz)     0.000000 eV/strain
       gamma       90.000000 Degrees      dE/de6(xy)     0.000000 eV/strain
--------------------------------------------------------------------------------

  Primitive cell volume =           197.474668 Angs**3

  Density of cell =      2.715940 g/cm**3

  Non-primitive cell volume =           197.474668 Angs**3


  Final internal derivatives :

--------------------------------------------------------------------------------
   No.  Atomic          a             b             c           Radius
        Label          (eV)          (eV)          (eV)        (eV/Angs)
--------------------------------------------------------------------------------
      1 K     c       0.000000      0.000000      0.000000      0.000000
      2 Zn    c       0.000000      0.000000      0.000000      0.000000
      3 F     c       0.000000      0.000000      0.000000      0.000000
      4 F     c       0.000394      0.000000      0.000000      0.000000
      5 F     s       0.000000      0.000000      0.000000      0.000000
      6 F     s      -0.002829      0.000000      0.000000      0.000000
--------------------------------------------------------------------------------
  Maximum abs         0.002829      0.000000      0.000000      0.000000
--------------------------------------------------------------------------------


  Born effective charge tensors : 

-------------------------------------------------------------------------------
  Atom             x           y             z
-------------------------------------------------------------------------------
   1 K     x       0.8328     -0.0024      0.0000
           y       0.0024      0.8328      0.0000
           z       0.0000      0.0000      0.9878
-------------------------------------------------------------------------------
   2 Zn    x       1.5597     -0.1355      0.0000
           y      -0.1355      1.5597      0.0000
           z       0.0000      0.0000      1.2326
-------------------------------------------------------------------------------
   3 F     x      -0.7986      0.0070      0.0000
           y       0.0070     -0.7986      0.0000
           z       0.0000      0.0000     -0.6574
-------------------------------------------------------------------------------
   4 F     x      -0.7970     -0.1734      0.0000
           y      -0.1734     -0.7970      0.0000
           z       0.0000      0.0000     -0.7815
-------------------------------------------------------------------------------




  Elastic Constant Matrix: (Units=GPa)

-------------------------------------------------------------------------------
  Indices      1         2         3         4         5         6    
-------------------------------------------------------------------------------
       1     64.1828   16.0428   -2.3056    0.0000    0.0000    0.0000
       2     16.0428   64.1828   -2.3056    0.0000    0.0000    0.0000
       3     -2.3056   -2.3056   95.8076    0.0000    0.0000    0.0000
       4      0.0000    0.0000    0.0000    2.2590    0.0000    0.0000
       5      0.0000    0.0000    0.0000    0.0000    2.2590    0.0000
       6      0.0000    0.0000    0.0000    0.0000    0.0000   17.5258
-------------------------------------------------------------------------------


  Elastic Compliance Matrix: (Units=1/GPa)

-------------------------------------------------------------------------------
  Indices      1         2         3         4         5         6    
-------------------------------------------------------------------------------
       1    0.016627 -0.004145  0.000300  0.000000  0.000000  0.000000
       2   -0.004145  0.016627  0.000300  0.000000  0.000000  0.000000
       3    0.000300  0.000300  0.010452  0.000000  0.000000  0.000000
       4    0.000000  0.000000  0.000000  0.442677  0.000000  0.000000
       5    0.000000  0.000000  0.000000  0.000000  0.442677  0.000000
       6    0.000000  0.000000  0.000000  0.000000  0.000000  0.057059
-------------------------------------------------------------------------------

  Mechanical properties :

-------------------------------------------------------------------------------
  Convention :                    Reuss         Voigt         Hill
-------------------------------------------------------------------------------
  Bulk  Modulus (GPa)     =      27.30911      27.44848      27.37880
  Shear Modulus (GPa)     =       4.97307      18.59154      11.78231
-------------------------------------------------------------------------------
  Velocity S-wave (km/s)  =       1.35317       2.61636       2.08284
  Velocity P-wave (km/s)  =       3.53505       4.38561       3.98310
-------------------------------------------------------------------------------
  Compressibility (1/GPa) =    0.03661781
-------------------------------------------------------------------------------
  Stress axis :                     x             y             z
-------------------------------------------------------------------------------
  Youngs Moduli (GPa)     =      60.14163      60.14163      95.67504
-------------------------------------------------------------------------------
  Poissons Ratio (x)      =                     0.24931      -0.02874
  Poissons Ratio (y)      =       0.24931                    -0.02874
  Poissons Ratio (z)      =      -0.01807      -0.01807
-------------------------------------------------------------------------------


  Piezoelectric Strain Matrix: (Units=C/m**2)

-------------------------------------------------------------------------------
  Indices      1         2         3         4         5         6    
-------------------------------------------------------------------------------
       x     0.00000   0.00000   0.00000   0.00000   0.00000   0.00000
       y     0.00000   0.00000   0.00000   0.00000   0.00000   0.00000
       z     0.00000   0.00000   0.00000   0.00000   0.00000   0.00000
-------------------------------------------------------------------------------


  Piezoelectric Stress Matrix: (Units=10**-11 C/N)

-------------------------------------------------------------------------------
  Indices      1         2         3         4         5         6    
-------------------------------------------------------------------------------
       x     0.00000   0.00000   0.00000   0.00000   0.00000   0.00000
       y     0.00000   0.00000   0.00000   0.00000   0.00000   0.00000
       z     0.00000   0.00000   0.00000   0.00000   0.00000   0.00000
-------------------------------------------------------------------------------


  Static dielectric constant tensor : 

-------------------------------------------------------------------------------
              x         y         z
-------------------------------------------------------------------------------
       x     1.21711   0.00000   0.00000
       y     0.00000   1.21711   0.00000
       z     0.00000   0.00000   0.93591
--------------------------------------------------------------------------------

  High frequency dielectric constant tensor : 

-------------------------------------------------------------------------------
              x         y         z
-------------------------------------------------------------------------------
       x     1.41188   0.00000   0.00000
       y     0.00000   1.41188   0.00000
       z     0.00000   0.00000   1.39450
-------------------------------------------------------------------------------

  Static refractive indices : 

-------------------------------------------------------------------------------
    1 =    0.96743      2 =    1.10323      3 =    1.10323
-------------------------------------------------------------------------------

  High frequency refractive indices : 

-------------------------------------------------------------------------------
    1 =    1.18089      2 =    1.18822      3 =    1.18822
-------------------------------------------------------------------------------


  Time to end of optimisation =       0.0487 seconds


  Peak dynamic memory used =       0.59 MB 


  Timing analysis for GULP :

--------------------------------------------------------------------------------
  Task / Subroutine                                          Time (Seconds)
--------------------------------------------------------------------------------
  Calculation of reciprocal space energy and derivatives          0.0009
  Calculation of reciprocal space energy using symmetry           0.0040
  Calculation of real space energy and derivatives                0.0038
  Calculation of real space energy using symmetry                 0.0364
  Symmetry generation of equivalent positions                     0.0004
--------------------------------------------------------------------------------
  Total CPU time                                                  0.0487
--------------------------------------------------------------------------------


  CIF file written as perov.cif                                               


  Job Finished at 12:49.35 22nd February   2017                               

