********************************************************************************
*                       GENERAL UTILITY LATTICE PROGRAM                        *
*                                 Julian Gale                                  *
*                      Nanochemistry Research Institute                        *
*                           Department of Chemistry                            *
*                    Curtin University, Western Australia                      *
********************************************************************************
* Version = 4.3.2 * Last modified =  3rd March 2015                            *
********************************************************************************
*  optimise     - perform optimisation run                                     *
*  conp         - constant pressure calculation                                *
*  property     - calculate properties for final geometry                      *
********************************************************************************

  Job Started  at 12:49.38 22nd February   2017                               

  Number of CPUs =     1


  Total number of configurations input =   1

********************************************************************************
*  Input for Configuration =   1                                               *
********************************************************************************

  Formula = K2Zn2F6                                                     

  Number of irreducible atoms/shells =       6


  Total number atoms/shells =      16

  Dimensionality = 3               :  Bulk   


  Symmetry :

  Crystal family                   :  Tetragonal  
  Crystal class  (Groth - 1921)    :  Ditetragonal Dipyramidal             

  Space group (centrosymmetric)    :  P 4/M B M       

  Patterson group                  :  P 4/m m m

  Cartesian lattice vectors (Angstroms) :

        4.200000    0.000000    0.000000
        0.000000    4.200000    0.000000
        0.000000    0.000000    4.200000

  Cell parameters (Angstroms/Degrees):

  a =       4.2000    alpha =  90.0000
  b =       4.2000    beta  =  90.0000
  c =       4.2000    gamma =  90.0000

  Initial cell volume =          74.088000 Angs**3

  Temperature of configuration =  0.000     K 

  Pressure of configuration =         0.000 GPa 

  Fractional coordinates of asymmetric unit :

--------------------------------------------------------------------------------
   No.  Atomic       x           y          z         Charge      Occupancy
        Label      (Frac)      (Frac)     (Frac)        (e)         (Frac)  
--------------------------------------------------------------------------------
      1 K     c    0.000000    0.000000    0.000000     1.40000    1.000000    
      2 Zn    c    0.000000    0.500000    0.000000     2.20000    1.000000    
      3 F     c    0.000000    0.500000    0.500000     0.37800    1.000000    
      4 F     c    0.227100 *  0.727100    0.000000     0.37800    1.000000    
      5 F     s    0.000000    0.500000    0.500000    -1.57800    1.000000    
      6 F     s    0.227100 *  0.727100    0.000000    -1.57800    1.000000    
--------------------------------------------------------------------------------


  Constraints : 

--------------------------------------------------------------------------------
  Constraint no.      Unconstrained     Constrained    Coefficient    Offset
                         Variable         Variable
--------------------------------------------------------------------------------
           1              Strain 1        Strain 2       1.00000      0.0000
           2                 4 x             4 y         1.00000      0.5000
           3                 6 x             6 y         1.00000      0.5000
--------------------------------------------------------------------------------


********************************************************************************
*  General input information                                                   *
********************************************************************************

  Species output for all configurations : 

--------------------------------------------------------------------------------
  Species    Type    Atomic    Atomic    Charge       Radii (Angs)     Library
                     Number     Mass       (e)     Cova   Ionic  VDW   Symbol
--------------------------------------------------------------------------------
    K        Core       19      39.10   1.400000   1.330  0.000  2.800          
    Zn       Core       30      65.39   2.200000   1.450  0.000  2.160          
    F        Core        9      19.00   0.378000   0.710  0.000  1.300          
    F        Shell       9       0.00  -1.578000   0.710  0.000  1.300          
--------------------------------------------------------------------------------


  Lattice summation method               =    Ewald          (3-D)
                                         =    Parry          (2-D)
                                         =    Saunders et al (1-D)
  Accuracy factor for lattice sums       =   12.000


  Time limit = Infinity

  Maximum range for interatomic potentials =    100000.000000 Angstroms

  General interatomic potentials :

--------------------------------------------------------------------------------
Atom  Types   Potential         A         B         C         D     Cutoffs(Ang)
  1     2                                                            Min    Max 
--------------------------------------------------------------------------------
K    c K    c Buckingham    0.219E+04 0.192      0.00      0.00     0.000 10.000
Zn   c F    s Buckingham    0.148E+04 0.266      0.00      0.00     0.000 10.000
F    s F    s Buckingham     912.     0.271      13.8      0.00     0.000 10.000
K    c F    s Buckingham    0.352E+04 0.267      0.00      0.00     0.000 10.000
F    c F    s Spring (c-s)   31.9      0.00      0.00      0.00     0.000  0.800
--------------------------------------------------------------------------------

********************************************************************************
*  Output for configuration   1                                                *
********************************************************************************


  Components of energy : 

--------------------------------------------------------------------------------
  Interatomic potentials     =         162.45946484 eV
  Monopole - monopole (real) =         -64.94646738 eV
  Monopole - monopole (recip)=         -92.49245606 eV
  Monopole - monopole (total)=        -157.43892344 eV
--------------------------------------------------------------------------------
  Total lattice energy       =           5.02054141 eV
--------------------------------------------------------------------------------
  Total lattice energy       =             484.4055 kJ/(mole unit cells)
--------------------------------------------------------------------------------


  Number of variables =        4

  Maximum number of calculations  =          1000
  Maximum Hessian update interval =            10
  Maximum step size               =   1.000000000
  Maximum parameter tolerance     =   0.000010000
  Maximum function  tolerance     =   0.000010000
  Maximum gradient  tolerance     =   0.001000000
  Maximum gradient  component     =   0.010000000

  Symmetry constrained optimisation

  Symmetry used for second derivatives

  Cell parameters to be optimised using strains

  Newton-Raphson optimiser to be used

  BFGS hessian update to be used

  Start of bulk optimisation :

  Cycle:      0 Energy:         5.020541  Gnorm:    197.282612  CPU:    0.005
  ** Hessian calculated **
  Cycle:      1 Energy:      -104.013700  Gnorm:     27.882201  CPU:    0.012
  ** Hessian calculated **
  Cycle:      2 Energy:      -106.361350  Gnorm:      6.709735  CPU:    0.018
  Cycle:      3 Energy:      -106.510543  Gnorm:      2.219089  CPU:    0.022
  Cycle:      4 Energy:      -106.555173  Gnorm:      0.850141  CPU:    0.025
  Cycle:      5 Energy:      -106.559825  Gnorm:      0.180116  CPU:    0.029
  Cycle:      6 Energy:      -106.560352  Gnorm:      0.109334  CPU:    0.032
  Cycle:      7 Energy:      -106.560379  Gnorm:      0.014598  CPU:    0.035
  Cycle:      8 Energy:      -106.560380  Gnorm:      0.005640  CPU:    0.038


  **** Optimisation achieved ****


  Final energy =    -106.56038043 eV
  Final Gnorm  =       0.00076455

  Components of energy : 

--------------------------------------------------------------------------------
  Interatomic potentials     =          15.82011571 eV
  Monopole - monopole (real) =         -30.99836781 eV
  Monopole - monopole (recip)=         -91.38212832 eV
  Monopole - monopole (total)=        -122.38049614 eV
--------------------------------------------------------------------------------
  Total lattice energy       =        -106.56038043 eV
--------------------------------------------------------------------------------
  Total lattice energy       =          -10281.4478 kJ/(mole unit cells)
--------------------------------------------------------------------------------

  Final asymmetric unit coordinates :

--------------------------------------------------------------------------------
   No.  Atomic        x           y           z         Radius
        Label       (Frac)      (Frac)      (Frac)       (Angs) 
--------------------------------------------------------------------------------
     1  K     c     0.000000    0.000000    0.000000    0.000000
     2  Zn    c     0.000000    0.500000    0.000000    0.000000
     3  F     c     0.000000    0.500000    0.500000    0.000000
     4  F     c     0.214660    0.714660    0.000000    0.000000
     5  F     s     0.000000    0.500000    0.500000    0.000000
     6  F     s     0.211528    0.711528    0.000000    0.000000
--------------------------------------------------------------------------------

  Final Cartesian lattice vectors (Angstroms) :

        6.435949    0.000000    0.000000
        0.000000    6.435949    0.000000
        0.000000    0.000000    3.664476


  Final cell parameters and derivatives :

--------------------------------------------------------------------------------
       a            6.435949 Angstrom     dE/de1(xx)    -0.001687 eV/strain
       b            6.435949 Angstrom     dE/de2(yy)     0.000000 eV/strain
       c            3.664476 Angstrom     dE/de3(zz)     0.000069 eV/strain
       alpha       90.000000 Degrees      dE/de4(yz)     0.000000 eV/strain
       beta        90.000000 Degrees      dE/de5(xz)     0.000000 eV/strain
       gamma       90.000000 Degrees      dE/de6(xy)     0.000000 eV/strain
--------------------------------------------------------------------------------

  Primitive cell volume =           151.787867 Angs**3

  Density of cell =      3.533414 g/cm**3

  Non-primitive cell volume =           151.787867 Angs**3


  Final internal derivatives :

--------------------------------------------------------------------------------
   No.  Atomic          a             b             c           Radius
        Label          (eV)          (eV)          (eV)        (eV/Angs)
--------------------------------------------------------------------------------
      1 K     c       0.000000      0.000000      0.000000      0.000000
      2 Zn    c       0.000000      0.000000      0.000000      0.000000
      3 F     c       0.000000      0.000000      0.000000      0.000000
      4 F     c      -0.000155      0.000000      0.000000      0.000000
      5 F     s       0.000000      0.000000      0.000000      0.000000
      6 F     s      -0.002545      0.000000      0.000000      0.000000
--------------------------------------------------------------------------------
  Maximum abs         0.002545      0.000000      0.000000      0.000000
--------------------------------------------------------------------------------


  Born effective charge tensors : 

-------------------------------------------------------------------------------
  Atom             x           y             z
-------------------------------------------------------------------------------
   1 K     x       1.1689     -0.0020      0.0000
           y       0.0020      1.1689      0.0000
           z       0.0000      0.0000      1.3851
-------------------------------------------------------------------------------
   2 Zn    x       1.9618     -0.2097      0.0000
           y      -0.2097      1.9618      0.0000
           z       0.0000      0.0000      1.5276
-------------------------------------------------------------------------------
   3 F     x      -1.0474      0.0134      0.0000
           y       0.0134     -1.0474      0.0000
           z       0.0000      0.0000     -0.8763
-------------------------------------------------------------------------------
   4 F     x      -1.0416     -0.2425      0.0000
           y      -0.2425     -1.0416      0.0000
           z       0.0000      0.0000     -1.0182
-------------------------------------------------------------------------------




  Elastic Constant Matrix: (Units=GPa)

-------------------------------------------------------------------------------
  Indices      1         2         3         4         5         6    
-------------------------------------------------------------------------------
       1    156.3801   35.0753   -5.5435    0.0000    0.0000    0.0000
       2     35.0753  156.3801   -5.5435    0.0000    0.0000    0.0000
       3     -5.5435   -5.5435  197.4855    0.0000    0.0000    0.0000
       4      0.0000    0.0000    0.0000    5.0727    0.0000    0.0000
       5      0.0000    0.0000    0.0000    0.0000    5.0727    0.0000
       6      0.0000    0.0000    0.0000    0.0000    0.0000   38.1572
-------------------------------------------------------------------------------


  Elastic Compliance Matrix: (Units=1/GPa)

-------------------------------------------------------------------------------
  Indices      1         2         3         4         5         6    
-------------------------------------------------------------------------------
       1    0.006738 -0.001506  0.000147  0.000000  0.000000  0.000000
       2   -0.001506  0.006738  0.000147  0.000000  0.000000  0.000000
       3    0.000147  0.000147  0.005072  0.000000  0.000000  0.000000
       4    0.000000  0.000000  0.000000  0.197134  0.000000  0.000000
       5    0.000000  0.000000  0.000000  0.000000  0.197134  0.000000
       6    0.000000  0.000000  0.000000  0.000000  0.000000  0.026207
-------------------------------------------------------------------------------

  Mechanical properties :

-------------------------------------------------------------------------------
  Convention :                    Reuss         Voigt         Hill
-------------------------------------------------------------------------------
  Bulk  Modulus (GPa)     =      62.02461      62.02470      62.02466
  Shear Modulus (GPa)     =      11.19013      42.07767      26.63390
-------------------------------------------------------------------------------
  Velocity S-wave (km/s)  =       1.77959       3.45087       2.74549
  Velocity P-wave (km/s)  =       4.66651       5.78202       5.25396
-------------------------------------------------------------------------------
  Compressibility (1/GPa) =    0.01612263
-------------------------------------------------------------------------------
  Stress axis :                     x             y             z
-------------------------------------------------------------------------------
  Youngs Moduli (GPa)     =     148.41911     148.41911     197.16453
-------------------------------------------------------------------------------
  Poissons Ratio (x)      =                     0.22352      -0.02895
  Poissons Ratio (y)      =       0.22352                    -0.02895
  Poissons Ratio (z)      =      -0.02180      -0.02180
-------------------------------------------------------------------------------


  Piezoelectric Strain Matrix: (Units=C/m**2)

-------------------------------------------------------------------------------
  Indices      1         2         3         4         5         6    
-------------------------------------------------------------------------------
       x     0.00000   0.00000   0.00000   0.00000   0.00000   0.00000
       y     0.00000   0.00000   0.00000   0.00000   0.00000   0.00000
       z     0.00000   0.00000   0.00000   0.00000   0.00000   0.00000
-------------------------------------------------------------------------------


  Piezoelectric Stress Matrix: (Units=10**-11 C/N)

-------------------------------------------------------------------------------
  Indices      1         2         3         4         5         6    
-------------------------------------------------------------------------------
       x     0.00000   0.00000   0.00000   0.00000   0.00000   0.00000
       y     0.00000   0.00000   0.00000   0.00000   0.00000   0.00000
       z     0.00000   0.00000   0.00000   0.00000   0.00000   0.00000
-------------------------------------------------------------------------------


  Static dielectric constant tensor : 

-------------------------------------------------------------------------------
              x         y         z
-------------------------------------------------------------------------------
       x     1.28571   0.00000   0.00000
       y     0.00000   1.28571   0.00000
       z     0.00000   0.00000   0.72036
--------------------------------------------------------------------------------

  High frequency dielectric constant tensor : 

-------------------------------------------------------------------------------
              x         y         z
-------------------------------------------------------------------------------
       x     1.52606   0.00000   0.00000
       y     0.00000   1.52606   0.00000
       z     0.00000   0.00000   1.50358
-------------------------------------------------------------------------------

  Static refractive indices : 

-------------------------------------------------------------------------------
    1 =    0.84874      2 =    1.13389      3 =    1.13389
-------------------------------------------------------------------------------

  High frequency refractive indices : 

-------------------------------------------------------------------------------
    1 =    1.22621      2 =    1.23534      3 =    1.23534
-------------------------------------------------------------------------------


  Time to end of optimisation =       0.0473 seconds


  Peak dynamic memory used =       0.59 MB 


  Timing analysis for GULP :

--------------------------------------------------------------------------------
  Task / Subroutine                                          Time (Seconds)
--------------------------------------------------------------------------------
  Calculation of reciprocal space energy and derivatives          0.0009
  Calculation of reciprocal space energy using symmetry           0.0037
  Calculation of real space energy and derivatives                0.0038
  Calculation of real space energy using symmetry                 0.0350
  Symmetry generation of equivalent positions                     0.0004
--------------------------------------------------------------------------------
  Total CPU time                                                  0.0473
--------------------------------------------------------------------------------


  CIF file written as perov.cif                                               


  Job Finished at 12:49.38 22nd February   2017                               

