********************************************************************************
*                       GENERAL UTILITY LATTICE PROGRAM                        *
*                                 Julian Gale                                  *
*                      Nanochemistry Research Institute                        *
*                           Department of Chemistry                            *
*                    Curtin University, Western Australia                      *
********************************************************************************
* Version = 4.3.2 * Last modified =  3rd March 2015                            *
********************************************************************************
*  optimise     - perform optimisation run                                     *
*  conp         - constant pressure calculation                                *
*  property     - calculate properties for final geometry                      *
********************************************************************************

  Job Started  at 12:49.37 22nd February   2017                               

  Number of CPUs =     1


  Total number of configurations input =   1

********************************************************************************
*  Input for Configuration =   1                                               *
********************************************************************************

  Formula = K2Zn2F6                                                     

  Number of irreducible atoms/shells =       6


  Total number atoms/shells =      16

  Dimensionality = 3               :  Bulk   


  Symmetry :

  Crystal family                   :  Tetragonal  
  Crystal class  (Groth - 1921)    :  Ditetragonal Dipyramidal             

  Space group (centrosymmetric)    :  P 4/M B M       

  Patterson group                  :  P 4/m m m

  Cartesian lattice vectors (Angstroms) :

        4.200000    0.000000    0.000000
        0.000000    4.200000    0.000000
        0.000000    0.000000    4.200000

  Cell parameters (Angstroms/Degrees):

  a =       4.2000    alpha =  90.0000
  b =       4.2000    beta  =  90.0000
  c =       4.2000    gamma =  90.0000

  Initial cell volume =          74.088000 Angs**3

  Temperature of configuration =  0.000     K 

  Pressure of configuration =         0.000 GPa 

  Fractional coordinates of asymmetric unit :

--------------------------------------------------------------------------------
   No.  Atomic       x           y          z         Charge      Occupancy
        Label      (Frac)      (Frac)     (Frac)        (e)         (Frac)  
--------------------------------------------------------------------------------
      1 K     c    0.000000    0.000000    0.000000     1.30000    1.000000    
      2 Zn    c    0.000000    0.500000    0.000000     2.50000    1.000000    
      3 F     c    0.000000    0.500000    0.500000     0.37800    1.000000    
      4 F     c    0.227100 *  0.727100    0.000000     0.37800    1.000000    
      5 F     s    0.000000    0.500000    0.500000    -1.64467    1.000000    
      6 F     s    0.227100 *  0.727100    0.000000    -1.64467    1.000000    
--------------------------------------------------------------------------------


  Constraints : 

--------------------------------------------------------------------------------
  Constraint no.      Unconstrained     Constrained    Coefficient    Offset
                         Variable         Variable
--------------------------------------------------------------------------------
           1              Strain 1        Strain 2       1.00000      0.0000
           2                 4 x             4 y         1.00000      0.5000
           3                 6 x             6 y         1.00000      0.5000
--------------------------------------------------------------------------------


********************************************************************************
*  General input information                                                   *
********************************************************************************

  Species output for all configurations : 

--------------------------------------------------------------------------------
  Species    Type    Atomic    Atomic    Charge       Radii (Angs)     Library
                     Number     Mass       (e)     Cova   Ionic  VDW   Symbol
--------------------------------------------------------------------------------
    K        Core       19      39.10   1.300000   1.330  0.000  2.800          
    Zn       Core       30      65.39   2.500000   1.450  0.000  2.160          
    F        Core        9      19.00   0.378000   0.710  0.000  1.300          
    F        Shell       9       0.00  -1.644667   0.710  0.000  1.300          
--------------------------------------------------------------------------------


  Lattice summation method               =    Ewald          (3-D)
                                         =    Parry          (2-D)
                                         =    Saunders et al (1-D)
  Accuracy factor for lattice sums       =   12.000


  Time limit = Infinity

  Maximum range for interatomic potentials =    100000.000000 Angstroms

  General interatomic potentials :

--------------------------------------------------------------------------------
Atom  Types   Potential         A         B         C         D     Cutoffs(Ang)
  1     2                                                            Min    Max 
--------------------------------------------------------------------------------
K    c K    c Buckingham    0.219E+04 0.192      0.00      0.00     0.000 10.000
Zn   c F    s Buckingham    0.148E+04 0.266      0.00      0.00     0.000 10.000
F    s F    s Buckingham     912.     0.271      13.8      0.00     0.000 10.000
K    c F    s Buckingham    0.352E+04 0.267      0.00      0.00     0.000 10.000
F    c F    s Spring (c-s)   34.7      0.00      0.00      0.00     0.000  0.800
--------------------------------------------------------------------------------

********************************************************************************
*  Output for configuration   1                                                *
********************************************************************************


  Components of energy : 

--------------------------------------------------------------------------------
  Interatomic potentials     =         162.45946484 eV
  Monopole - monopole (real) =         -73.86993429 eV
  Monopole - monopole (recip)=        -106.18803269 eV
  Monopole - monopole (total)=        -180.05796698 eV
--------------------------------------------------------------------------------
  Total lattice energy       =         -17.59850214 eV
--------------------------------------------------------------------------------
  Total lattice energy       =           -1697.9864 kJ/(mole unit cells)
--------------------------------------------------------------------------------


  Number of variables =        4

  Maximum number of calculations  =          1000
  Maximum Hessian update interval =            10
  Maximum step size               =   1.000000000
  Maximum parameter tolerance     =   0.000010000
  Maximum function  tolerance     =   0.000010000
  Maximum gradient  tolerance     =   0.001000000
  Maximum gradient  component     =   0.010000000

  Symmetry constrained optimisation

  Symmetry used for second derivatives

  Cell parameters to be optimised using strains

  Newton-Raphson optimiser to be used

  BFGS hessian update to be used

  Start of bulk optimisation :

  Cycle:      0 Energy:       -17.598502  Gnorm:    191.717525  CPU:    0.005
  ** Hessian calculated **
  Cycle:      1 Energy:      -119.382236  Gnorm:     32.184478  CPU:    0.011
  ** Hessian calculated **
  Cycle:      2 Energy:      -125.162253  Gnorm:     11.452469  CPU:    0.017
  Cycle:      3 Energy:      -125.626414  Gnorm:      7.819350  CPU:    0.021
  Cycle:      4 Energy:      -125.817864  Gnorm:      3.822578  CPU:    0.024
  Cycle:      5 Energy:      -125.850308  Gnorm:      1.410646  CPU:    0.027
  Cycle:      6 Energy:      -125.853783  Gnorm:      0.131115  CPU:    0.031
  Cycle:      7 Energy:      -125.854012  Gnorm:      0.064312  CPU:    0.034
  Cycle:      8 Energy:      -125.854032  Gnorm:      0.024242  CPU:    0.037
  Cycle:      9 Energy:      -125.854036  Gnorm:      0.004954  CPU:    0.040
  Cycle:     10 Energy:      -125.854036  Gnorm:      0.002300  CPU:    0.043


  **** Optimisation achieved ****


  Final energy =    -125.85403600 eV
  Final Gnorm  =       0.00021824

  Components of energy : 

--------------------------------------------------------------------------------
  Interatomic potentials     =          20.03493600 eV
  Monopole - monopole (real) =         -41.52408699 eV
  Monopole - monopole (recip)=        -104.36488501 eV
  Monopole - monopole (total)=        -145.88897199 eV
--------------------------------------------------------------------------------
  Total lattice energy       =        -125.85403600 eV
--------------------------------------------------------------------------------
  Total lattice energy       =          -12142.9906 kJ/(mole unit cells)
--------------------------------------------------------------------------------

  Final asymmetric unit coordinates :

--------------------------------------------------------------------------------
   No.  Atomic        x           y           z         Radius
        Label       (Frac)      (Frac)      (Frac)       (Angs) 
--------------------------------------------------------------------------------
     1  K     c     0.000000    0.000000    0.000000    0.000000
     2  Zn    c     0.000000    0.500000    0.000000    0.000000
     3  F     c     0.000000    0.500000    0.500000    0.000000
     4  F     c     0.201063    0.701063    0.000000    0.000000
     5  F     s     0.000000    0.500000    0.500000    0.000000
     6  F     s     0.196045    0.696045    0.000000    0.000000
--------------------------------------------------------------------------------

  Final Cartesian lattice vectors (Angstroms) :

        6.438621    0.000000    0.000000
        0.000000    6.438621    0.000000
        0.000000    0.000000    3.540870


  Final cell parameters and derivatives :

--------------------------------------------------------------------------------
       a            6.438621 Angstrom     dE/de1(xx)     0.000796 eV/strain
       b            6.438621 Angstrom     dE/de2(yy)     0.000000 eV/strain
       c            3.540870 Angstrom     dE/de3(zz)    -0.000143 eV/strain
       alpha       90.000000 Degrees      dE/de4(yz)     0.000000 eV/strain
       beta        90.000000 Degrees      dE/de5(xz)     0.000000 eV/strain
       gamma       90.000000 Degrees      dE/de6(xy)     0.000000 eV/strain
--------------------------------------------------------------------------------

  Primitive cell volume =           146.789742 Angs**3

  Density of cell =      3.653726 g/cm**3

  Non-primitive cell volume =           146.789742 Angs**3


  Final internal derivatives :

--------------------------------------------------------------------------------
   No.  Atomic          a             b             c           Radius
        Label          (eV)          (eV)          (eV)        (eV/Angs)
--------------------------------------------------------------------------------
      1 K     c       0.000000      0.000000      0.000000      0.000000
      2 Zn    c       0.000000      0.000000      0.000000      0.000000
      3 F     c       0.000000      0.000000      0.000000      0.000000
      4 F     c       0.000165      0.000000      0.000000      0.000000
      5 F     s       0.000000      0.000000      0.000000      0.000000
      6 F     s      -0.000284      0.000000      0.000000      0.000000
--------------------------------------------------------------------------------
  Maximum abs         0.000284      0.000000      0.000000      0.000000
--------------------------------------------------------------------------------


  Born effective charge tensors : 

-------------------------------------------------------------------------------
  Atom             x           y             z
-------------------------------------------------------------------------------
   1 K     x       1.1215      0.0020      0.0000
           y      -0.0020      1.1215      0.0000
           z       0.0000      0.0000      1.2924
-------------------------------------------------------------------------------
   2 Zn    x       1.9715     -0.3149      0.0000
           y      -0.3149      1.9715      0.0000
           z       0.0000      0.0000      1.7798
-------------------------------------------------------------------------------
   3 F     x      -1.0249      0.0165      0.0000
           y       0.0165     -1.0249      0.0000
           z       0.0000      0.0000     -0.9280
-------------------------------------------------------------------------------
   4 F     x      -1.0341     -0.1693      0.0000
           y      -0.1693     -1.0341      0.0000
           z       0.0000      0.0000     -1.0721
-------------------------------------------------------------------------------




  Elastic Constant Matrix: (Units=GPa)

-------------------------------------------------------------------------------
  Indices      1         2         3         4         5         6    
-------------------------------------------------------------------------------
       1    160.5504   27.3531   -6.3779    0.0000    0.0000    0.0000
       2     27.3531  160.5504   -6.3779    0.0000    0.0000    0.0000
       3     -6.3779   -6.3779  235.1751    0.0000    0.0000    0.0000
       4      0.0000    0.0000    0.0000    3.0638    0.0000    0.0000
       5      0.0000    0.0000    0.0000    0.0000    3.0638    0.0000
       6      0.0000    0.0000    0.0000    0.0000    0.0000   25.8695
-------------------------------------------------------------------------------


  Elastic Compliance Matrix: (Units=1/GPa)

-------------------------------------------------------------------------------
  Indices      1         2         3         4         5         6    
-------------------------------------------------------------------------------
       1    0.006420 -0.001088  0.000145  0.000000  0.000000  0.000000
       2   -0.001088  0.006420  0.000145  0.000000  0.000000  0.000000
       3    0.000145  0.000145  0.004260  0.000000  0.000000  0.000000
       4    0.000000  0.000000  0.000000  0.326393  0.000000  0.000000
       5    0.000000  0.000000  0.000000  0.000000  0.326393  0.000000
       6    0.000000  0.000000  0.000000  0.000000  0.000000  0.038656
-------------------------------------------------------------------------------

  Mechanical properties :

-------------------------------------------------------------------------------
  Convention :                    Reuss         Voigt         Hill
-------------------------------------------------------------------------------
  Bulk  Modulus (GPa)     =      64.50878      65.05227      64.78052
  Shear Modulus (GPa)     =       6.99002      42.51133      24.75067
-------------------------------------------------------------------------------
  Velocity S-wave (km/s)  =       1.38316       3.41102       2.60271
  Velocity P-wave (km/s)  =       4.49516       5.77216       5.17321
-------------------------------------------------------------------------------
  Compressibility (1/GPa) =    0.01550177
-------------------------------------------------------------------------------
  Stress axis :                     x             y             z
-------------------------------------------------------------------------------
  Youngs Moduli (GPa)     =     155.77109     155.77109     234.74213
-------------------------------------------------------------------------------
  Poissons Ratio (x)      =                     0.16948      -0.03394
  Poissons Ratio (y)      =       0.16948                    -0.03394
  Poissons Ratio (z)      =      -0.02252      -0.02252
-------------------------------------------------------------------------------


  Piezoelectric Strain Matrix: (Units=C/m**2)

-------------------------------------------------------------------------------
  Indices      1         2         3         4         5         6    
-------------------------------------------------------------------------------
       x     0.00000   0.00000   0.00000   0.00000   0.00000   0.00000
       y     0.00000   0.00000   0.00000   0.00000   0.00000   0.00000
       z     0.00000   0.00000   0.00000   0.00000   0.00000   0.00000
-------------------------------------------------------------------------------


  Piezoelectric Stress Matrix: (Units=10**-11 C/N)

-------------------------------------------------------------------------------
  Indices      1         2         3         4         5         6    
-------------------------------------------------------------------------------
       x     0.00000   0.00000   0.00000   0.00000   0.00000   0.00000
       y     0.00000   0.00000   0.00000   0.00000   0.00000   0.00000
       z     0.00000   0.00000   0.00000   0.00000   0.00000   0.00000
-------------------------------------------------------------------------------


  Static dielectric constant tensor : 

-------------------------------------------------------------------------------
              x         y         z
-------------------------------------------------------------------------------
       x    14.44141   0.00000   0.00000
       y     0.00000  14.44141   0.00000
       z     0.00000   0.00000   0.87534
--------------------------------------------------------------------------------

  High frequency dielectric constant tensor : 

-------------------------------------------------------------------------------
              x         y         z
-------------------------------------------------------------------------------
       x     1.51525   0.00000   0.00000
       y     0.00000   1.51525   0.00000
       z     0.00000   0.00000   1.52223
-------------------------------------------------------------------------------

  Static refractive indices : 

-------------------------------------------------------------------------------
    1 =    0.93560      2 =    3.80019      3 =    3.80019
-------------------------------------------------------------------------------

  High frequency refractive indices : 

-------------------------------------------------------------------------------
    1 =    1.23095      2 =    1.23095      3 =    1.23379
-------------------------------------------------------------------------------


  Time to end of optimisation =       0.0518 seconds


  Peak dynamic memory used =       0.59 MB 


  Timing analysis for GULP :

--------------------------------------------------------------------------------
  Task / Subroutine                                          Time (Seconds)
--------------------------------------------------------------------------------
  Calculation of reciprocal space energy and derivatives          0.0009
  Calculation of reciprocal space energy using symmetry           0.0042
  Calculation of real space energy and derivatives                0.0038
  Calculation of real space energy using symmetry                 0.0388
  Symmetry generation of equivalent positions                     0.0004
--------------------------------------------------------------------------------
  Total CPU time                                                  0.0518
--------------------------------------------------------------------------------


  CIF file written as perov.cif                                               


  Job Finished at 12:49.37 22nd February   2017                               

