********************************************************************************
*                       GENERAL UTILITY LATTICE PROGRAM                        *
*                                 Julian Gale                                  *
*                      Nanochemistry Research Institute                        *
*                           Department of Chemistry                            *
*                    Curtin University, Western Australia                      *
********************************************************************************
* Version = 4.3.2 * Last modified =  3rd March 2015                            *
********************************************************************************
*  optimise     - perform optimisation run                                     *
*  conp         - constant pressure calculation                                *
*  property     - calculate properties for final geometry                      *
********************************************************************************

  Job Started  at 12:49.37 22nd February   2017                               

  Number of CPUs =     1


  Total number of configurations input =   1

********************************************************************************
*  Input for Configuration =   1                                               *
********************************************************************************

  Formula = K2Zn2F6                                                     

  Number of irreducible atoms/shells =       6


  Total number atoms/shells =      16

  Dimensionality = 3               :  Bulk   


  Symmetry :

  Crystal family                   :  Tetragonal  
  Crystal class  (Groth - 1921)    :  Ditetragonal Dipyramidal             

  Space group (centrosymmetric)    :  P 4/M B M       

  Patterson group                  :  P 4/m m m

  Cartesian lattice vectors (Angstroms) :

        4.200000    0.000000    0.000000
        0.000000    4.200000    0.000000
        0.000000    0.000000    4.200000

  Cell parameters (Angstroms/Degrees):

  a =       4.2000    alpha =  90.0000
  b =       4.2000    beta  =  90.0000
  c =       4.2000    gamma =  90.0000

  Initial cell volume =          74.088000 Angs**3

  Temperature of configuration =  0.000     K 

  Pressure of configuration =         0.000 GPa 

  Fractional coordinates of asymmetric unit :

--------------------------------------------------------------------------------
   No.  Atomic       x           y          z         Charge      Occupancy
        Label      (Frac)      (Frac)     (Frac)        (e)         (Frac)  
--------------------------------------------------------------------------------
      1 K     c    0.000000    0.000000    0.000000     1.40000    1.000000    
      2 Zn    c    0.000000    0.500000    0.000000     1.70000    1.000000    
      3 F     c    0.000000    0.500000    0.500000     0.37800    1.000000    
      4 F     c    0.227100 *  0.727100    0.000000     0.37800    1.000000    
      5 F     s    0.000000    0.500000    0.500000    -1.41133    1.000000    
      6 F     s    0.227100 *  0.727100    0.000000    -1.41133    1.000000    
--------------------------------------------------------------------------------


  Constraints : 

--------------------------------------------------------------------------------
  Constraint no.      Unconstrained     Constrained    Coefficient    Offset
                         Variable         Variable
--------------------------------------------------------------------------------
           1              Strain 1        Strain 2       1.00000      0.0000
           2                 4 x             4 y         1.00000      0.5000
           3                 6 x             6 y         1.00000      0.5000
--------------------------------------------------------------------------------


********************************************************************************
*  General input information                                                   *
********************************************************************************

  Species output for all configurations : 

--------------------------------------------------------------------------------
  Species    Type    Atomic    Atomic    Charge       Radii (Angs)     Library
                     Number     Mass       (e)     Cova   Ionic  VDW   Symbol
--------------------------------------------------------------------------------
    K        Core       19      39.10   1.400000   1.330  0.000  2.800          
    Zn       Core       30      65.39   1.700000   1.450  0.000  2.160          
    F        Core        9      19.00   0.378000   0.710  0.000  1.300          
    F        Shell       9       0.00  -1.411333   0.710  0.000  1.300          
--------------------------------------------------------------------------------


  Lattice summation method               =    Ewald          (3-D)
                                         =    Parry          (2-D)
                                         =    Saunders et al (1-D)
  Accuracy factor for lattice sums       =   12.000


  Time limit = Infinity

  Maximum range for interatomic potentials =    100000.000000 Angstroms

  General interatomic potentials :

--------------------------------------------------------------------------------
Atom  Types   Potential         A         B         C         D     Cutoffs(Ang)
  1     2                                                            Min    Max 
--------------------------------------------------------------------------------
K    c K    c Buckingham    0.219E+04 0.192      0.00      0.00     0.000 10.000
Zn   c F    s Buckingham    0.148E+04 0.266      0.00      0.00     0.000 10.000
F    s F    s Buckingham     912.     0.271      13.8      0.00     0.000 10.000
K    c F    s Buckingham    0.352E+04 0.267      0.00      0.00     0.000 10.000
F    c F    s Spring (c-s)   25.5      0.00      0.00      0.00     0.000  0.800
--------------------------------------------------------------------------------

********************************************************************************
*  Output for configuration   1                                                *
********************************************************************************


  Components of energy : 

--------------------------------------------------------------------------------
  Interatomic potentials     =         162.45946484 eV
  Monopole - monopole (real) =         -47.16077089 eV
  Monopole - monopole (recip)=         -66.90313532 eV
  Monopole - monopole (total)=        -114.06390620 eV
--------------------------------------------------------------------------------
  Total lattice energy       =          48.39555864 eV
--------------------------------------------------------------------------------
  Total lattice energy       =            4669.4316 kJ/(mole unit cells)
--------------------------------------------------------------------------------


  Number of variables =        4

  Maximum number of calculations  =          1000
  Maximum Hessian update interval =            10
  Maximum step size               =   1.000000000
  Maximum parameter tolerance     =   0.000010000
  Maximum function  tolerance     =   0.000010000
  Maximum gradient  tolerance     =   0.001000000
  Maximum gradient  component     =   0.010000000

  Symmetry constrained optimisation

  Symmetry used for second derivatives

  Cell parameters to be optimised using strains

  Newton-Raphson optimiser to be used

  BFGS hessian update to be used

  Start of bulk optimisation :

  Cycle:      0 Energy:        48.395559  Gnorm:    208.216954  CPU:    0.005
  ** Hessian calculated **
  Cycle:      1 Energy:       -72.239314  Gnorm:     22.262528  CPU:    0.012
  ** Hessian calculated **
  Cycle:      2 Energy:       -72.758378  Gnorm:      4.862046  CPU:    0.017
  Cycle:      3 Energy:       -72.802063  Gnorm:      0.099374  CPU:    0.021
  Cycle:      4 Energy:       -72.802232  Gnorm:      0.177891  CPU:    0.024
  Cycle:      5 Energy:       -72.802358  Gnorm:      0.016981  CPU:    0.028


  **** Optimisation achieved ****


  Final energy =     -72.80235806 eV
  Final Gnorm  =       0.00011303

  Components of energy : 

--------------------------------------------------------------------------------
  Interatomic potentials     =           9.74935130 eV
  Monopole - monopole (real) =         -16.57485292 eV
  Monopole - monopole (recip)=         -65.97685643 eV
  Monopole - monopole (total)=         -82.55170935 eV
--------------------------------------------------------------------------------
  Total lattice energy       =         -72.80235806 eV
--------------------------------------------------------------------------------
  Total lattice energy       =           -7024.3147 kJ/(mole unit cells)
--------------------------------------------------------------------------------

  Final asymmetric unit coordinates :

--------------------------------------------------------------------------------
   No.  Atomic        x           y           z         Radius
        Label       (Frac)      (Frac)      (Frac)       (Angs) 
--------------------------------------------------------------------------------
     1  K     c     0.000000    0.000000    0.000000    0.000000
     2  Zn    c     0.000000    0.500000    0.000000    0.000000
     3  F     c     0.000000    0.500000    0.500000    0.000000
     4  F     c     0.249996    0.749996    0.000000    0.000000
     5  F     s     0.000000    0.500000    0.500000    0.000000
     6  F     s     0.249995    0.749995    0.000000    0.000000
--------------------------------------------------------------------------------

  Final Cartesian lattice vectors (Angstroms) :

        6.603639    0.000000    0.000000
        0.000000    6.603639    0.000000
        0.000000    0.000000    3.951605


  Final cell parameters and derivatives :

--------------------------------------------------------------------------------
       a            6.603639 Angstrom     dE/de1(xx)    -0.000251 eV/strain
       b            6.603639 Angstrom     dE/de2(yy)     0.000000 eV/strain
       c            3.951605 Angstrom     dE/de3(zz)     0.000217 eV/strain
       alpha       90.000000 Degrees      dE/de4(yz)     0.000000 eV/strain
       beta        90.000000 Degrees      dE/de5(xz)     0.000000 eV/strain
       gamma       90.000000 Degrees      dE/de6(xy)     0.000000 eV/strain
--------------------------------------------------------------------------------

  Primitive cell volume =           172.321789 Angs**3

  Density of cell =      3.112372 g/cm**3

  Non-primitive cell volume =           172.321789 Angs**3


  Final internal derivatives :

--------------------------------------------------------------------------------
   No.  Atomic          a             b             c           Radius
        Label          (eV)          (eV)          (eV)        (eV/Angs)
--------------------------------------------------------------------------------
      1 K     c       0.000000      0.000000      0.000000      0.000000
      2 Zn    c       0.000000      0.000000      0.000000      0.000000
      3 F     c       0.000000      0.000000      0.000000      0.000000
      4 F     c      -0.000135      0.000000      0.000000      0.000000
      5 F     s       0.000000      0.000000      0.000000      0.000000
      6 F     s      -0.000276      0.000000      0.000000      0.000000
--------------------------------------------------------------------------------
  Maximum abs         0.000276      0.000000      0.000000      0.000000
--------------------------------------------------------------------------------


  Born effective charge tensors : 

-------------------------------------------------------------------------------
  Atom             x           y             z
-------------------------------------------------------------------------------
   1 K     x       1.1424      0.0000      0.0000
           y       0.0000      1.1424      0.0000
           z       0.0000      0.0000      1.3720
-------------------------------------------------------------------------------
   2 Zn    x       1.7245      0.0000      0.0000
           y       0.0000      1.7245      0.0000
           z       0.0000      0.0000      1.1723
-------------------------------------------------------------------------------
   3 F     x      -0.9757      0.0000      0.0000
           y       0.0000     -0.9757      0.0000
           z       0.0000      0.0000     -0.7785
-------------------------------------------------------------------------------
   4 F     x      -0.9456     -0.2722      0.0000
           y      -0.2722     -0.9456      0.0000
           z       0.0000      0.0000     -0.8829
-------------------------------------------------------------------------------




  Elastic Constant Matrix: (Units=GPa)

-------------------------------------------------------------------------------
  Indices      1         2         3         4         5         6    
-------------------------------------------------------------------------------
       1    127.1638   48.2881    4.6379    0.0000    0.0000    0.0000
       2     48.2881  127.1638    4.6379    0.0000    0.0000    0.0000
       3      4.6379    4.6379  129.3085    0.0000    0.0000    0.0000
       4      0.0000    0.0000    0.0000    4.6379    0.0000    0.0000
       5      0.0000    0.0000    0.0000    0.0000    4.6379    0.0000
       6      0.0000    0.0000    0.0000    0.0000    0.0000   48.2879
-------------------------------------------------------------------------------


  Elastic Compliance Matrix: (Units=1/GPa)

-------------------------------------------------------------------------------
  Indices      1         2         3         4         5         6    
-------------------------------------------------------------------------------
       1    0.009194 -0.003484 -0.000205  0.000000  0.000000  0.000000
       2   -0.003484  0.009194 -0.000205  0.000000  0.000000  0.000000
       3   -0.000205 -0.000205  0.007748  0.000000  0.000000  0.000000
       4    0.000000  0.000000  0.000000  0.215613  0.000000  0.000000
       5    0.000000  0.000000  0.000000  0.000000  0.215613  0.000000
       6    0.000000  0.000000  0.000000  0.000000  0.000000  0.020709
-------------------------------------------------------------------------------

  Mechanical properties :

-------------------------------------------------------------------------------
  Convention :                    Reuss         Voigt         Hill
-------------------------------------------------------------------------------
  Bulk  Modulus (GPa)     =      54.49690      55.41822      54.95756
  Shear Modulus (GPa)     =      10.16313      33.25092      21.70703
-------------------------------------------------------------------------------
  Velocity S-wave (km/s)  =       1.80704       3.26856       2.64092
  Velocity P-wave (km/s)  =       4.67586       5.66131       5.19201
-------------------------------------------------------------------------------
  Compressibility (1/GPa) =    0.01834967
-------------------------------------------------------------------------------
  Stress axis :                     x             y             z
-------------------------------------------------------------------------------
  Youngs Moduli (GPa)     =     108.76329     108.76329     129.06332
-------------------------------------------------------------------------------
  Poissons Ratio (x)      =                     0.37892       0.02643
  Poissons Ratio (y)      =       0.37892                     0.02643
  Poissons Ratio (z)      =       0.02228       0.02228
-------------------------------------------------------------------------------


  Piezoelectric Strain Matrix: (Units=C/m**2)

-------------------------------------------------------------------------------
  Indices      1         2         3         4         5         6    
-------------------------------------------------------------------------------
       x     0.00000   0.00000   0.00000   0.00000   0.00000   0.00000
       y     0.00000   0.00000   0.00000   0.00000   0.00000   0.00000
       z     0.00000   0.00000   0.00000   0.00000   0.00000   0.00000
-------------------------------------------------------------------------------


  Piezoelectric Stress Matrix: (Units=10**-11 C/N)

-------------------------------------------------------------------------------
  Indices      1         2         3         4         5         6    
-------------------------------------------------------------------------------
       x     0.00000   0.00000   0.00000   0.00000   0.00000   0.00000
       y     0.00000   0.00000   0.00000   0.00000   0.00000   0.00000
       z     0.00000   0.00000   0.00000   0.00000   0.00000   0.00000
-------------------------------------------------------------------------------


  Static dielectric constant tensor : 

-------------------------------------------------------------------------------
              x         y         z
-------------------------------------------------------------------------------
       x    -9.11685   0.00000   0.00000
       y     0.00000  -9.11685   0.00000
       z     0.00000   0.00000   0.51307
--------------------------------------------------------------------------------

  High frequency dielectric constant tensor : 

-------------------------------------------------------------------------------
              x         y         z
-------------------------------------------------------------------------------
       x     1.48720   0.00000   0.00000
       y     0.00000   1.48720   0.00000
       z     0.00000   0.00000   1.44768
-------------------------------------------------------------------------------

  Static refractive indices : 

-------------------------------------------------------------------------------
    1 =   -3.01941      2 =   -3.01941      3 =    0.71629
-------------------------------------------------------------------------------

  High frequency refractive indices : 

-------------------------------------------------------------------------------
    1 =    1.20320      2 =    1.21951      3 =    1.21951
-------------------------------------------------------------------------------


  Time to end of optimisation =       0.0364 seconds


  Peak dynamic memory used =       0.59 MB 


  Timing analysis for GULP :

--------------------------------------------------------------------------------
  Task / Subroutine                                          Time (Seconds)
--------------------------------------------------------------------------------
  Calculation of reciprocal space energy and derivatives          0.0008
  Calculation of reciprocal space energy using symmetry           0.0027
  Calculation of real space energy and derivatives                0.0040
  Calculation of real space energy using symmetry                 0.0252
  Symmetry generation of equivalent positions                     0.0004
--------------------------------------------------------------------------------
  Total CPU time                                                  0.0364
--------------------------------------------------------------------------------


  CIF file written as perov.cif                                               


  Job Finished at 12:49.37 22nd February   2017                               

