********************************************************************************
*                       GENERAL UTILITY LATTICE PROGRAM                        *
*                                 Julian Gale                                  *
*                      Nanochemistry Research Institute                        *
*                           Department of Chemistry                            *
*                    Curtin University, Western Australia                      *
********************************************************************************
* Version = 4.3.2 * Last modified =  3rd March 2015                            *
********************************************************************************
*  optimise     - perform optimisation run                                     *
*  conp         - constant pressure calculation                                *
*  property     - calculate properties for final geometry                      *
********************************************************************************

  Job Started  at 12:49.34 22nd February   2017                               

  Number of CPUs =     1


  Total number of configurations input =   1

********************************************************************************
*  Input for Configuration =   1                                               *
********************************************************************************

  Formula = K2Zn2F6                                                     

  Number of irreducible atoms/shells =       6


  Total number atoms/shells =      16

  Dimensionality = 3               :  Bulk   


  Symmetry :

  Crystal family                   :  Tetragonal  
  Crystal class  (Groth - 1921)    :  Ditetragonal Dipyramidal             

  Space group (centrosymmetric)    :  P 4/M B M       

  Patterson group                  :  P 4/m m m

  Cartesian lattice vectors (Angstroms) :

        4.200000    0.000000    0.000000
        0.000000    4.200000    0.000000
        0.000000    0.000000    4.200000

  Cell parameters (Angstroms/Degrees):

  a =       4.2000    alpha =  90.0000
  b =       4.2000    beta  =  90.0000
  c =       4.2000    gamma =  90.0000

  Initial cell volume =          74.088000 Angs**3

  Temperature of configuration =  0.000     K 

  Pressure of configuration =         0.000 GPa 

  Fractional coordinates of asymmetric unit :

--------------------------------------------------------------------------------
   No.  Atomic       x           y          z         Charge      Occupancy
        Label      (Frac)      (Frac)     (Frac)        (e)         (Frac)  
--------------------------------------------------------------------------------
      1 K     c    0.000000    0.000000    0.000000     0.90000    1.000000    
      2 Zn    c    0.000000    0.500000    0.000000     1.70000    1.000000    
      3 F     c    0.000000    0.500000    0.500000     0.37800    1.000000    
      4 F     c    0.227100 *  0.727100    0.000000     0.37800    1.000000    
      5 F     s    0.000000    0.500000    0.500000    -1.24467    1.000000    
      6 F     s    0.227100 *  0.727100    0.000000    -1.24467    1.000000    
--------------------------------------------------------------------------------


  Constraints : 

--------------------------------------------------------------------------------
  Constraint no.      Unconstrained     Constrained    Coefficient    Offset
                         Variable         Variable
--------------------------------------------------------------------------------
           1              Strain 1        Strain 2       1.00000      0.0000
           2                 4 x             4 y         1.00000      0.5000
           3                 6 x             6 y         1.00000      0.5000
--------------------------------------------------------------------------------


********************************************************************************
*  General input information                                                   *
********************************************************************************

  Species output for all configurations : 

--------------------------------------------------------------------------------
  Species    Type    Atomic    Atomic    Charge       Radii (Angs)     Library
                     Number     Mass       (e)     Cova   Ionic  VDW   Symbol
--------------------------------------------------------------------------------
    K        Core       19      39.10   0.900000   1.330  0.000  2.800          
    Zn       Core       30      65.39   1.700000   1.450  0.000  2.160          
    F        Core        9      19.00   0.378000   0.710  0.000  1.300          
    F        Shell       9       0.00  -1.244667   0.710  0.000  1.300          
--------------------------------------------------------------------------------


  Lattice summation method               =    Ewald          (3-D)
                                         =    Parry          (2-D)
                                         =    Saunders et al (1-D)
  Accuracy factor for lattice sums       =   12.000


  Time limit = Infinity

  Maximum range for interatomic potentials =    100000.000000 Angstroms

  General interatomic potentials :

--------------------------------------------------------------------------------
Atom  Types   Potential         A         B         C         D     Cutoffs(Ang)
  1     2                                                            Min    Max 
--------------------------------------------------------------------------------
K    c K    c Buckingham    0.219E+04 0.192      0.00      0.00     0.000 10.000
Zn   c F    s Buckingham    0.148E+04 0.266      0.00      0.00     0.000 10.000
F    s F    s Buckingham     912.     0.271      13.8      0.00     0.000 10.000
K    c F    s Buckingham    0.352E+04 0.267      0.00      0.00     0.000 10.000
F    c F    s Spring (c-s)   19.9      0.00      0.00      0.00     0.000  0.800
--------------------------------------------------------------------------------

********************************************************************************
*  Output for configuration   1                                                *
********************************************************************************


  Components of energy : 

--------------------------------------------------------------------------------
  Interatomic potentials     =         162.45946484 eV
  Monopole - monopole (real) =         -34.51458701 eV
  Monopole - monopole (recip)=         -49.56461586 eV
  Monopole - monopole (total)=         -84.07920287 eV
--------------------------------------------------------------------------------
  Total lattice energy       =          78.38026197 eV
--------------------------------------------------------------------------------
  Total lattice energy       =            7562.4971 kJ/(mole unit cells)
--------------------------------------------------------------------------------


  Number of variables =        4

  Maximum number of calculations  =          1000
  Maximum Hessian update interval =            10
  Maximum step size               =   1.000000000
  Maximum parameter tolerance     =   0.000010000
  Maximum function  tolerance     =   0.000010000
  Maximum gradient  tolerance     =   0.001000000
  Maximum gradient  component     =   0.010000000

  Symmetry constrained optimisation

  Symmetry used for second derivatives

  Cell parameters to be optimised using strains

  Newton-Raphson optimiser to be used

  BFGS hessian update to be used

  Start of bulk optimisation :

  Cycle:      0 Energy:        78.380262  Gnorm:    214.059617  CPU:    0.005
  ** Hessian calculated **
  Cycle:      1 Energy:       -51.372640  Gnorm:     26.599970  CPU:    0.012
  ** Hessian calculated **
  Cycle:      2 Energy:       -52.372799  Gnorm:      8.815041  CPU:    0.018
  Cycle:      3 Energy:       -52.433699  Gnorm:      6.654910  CPU:    0.021
  Cycle:      4 Energy:       -52.602410  Gnorm:      1.747888  CPU:    0.025
  Cycle:      5 Energy:       -52.605620  Gnorm:      0.482398  CPU:    0.028
  Cycle:      6 Energy:       -52.608155  Gnorm:      0.055863  CPU:    0.031
  Cycle:      7 Energy:       -52.608169  Gnorm:      0.017378  CPU:    0.034
  Cycle:      8 Energy:       -52.608172  Gnorm:      0.012415  CPU:    0.038
  Cycle:      9 Energy:       -52.608173  Gnorm:      0.001735  CPU:    0.041
  Cycle:     10 Energy:       -52.608173  Gnorm:      0.001167  CPU:    0.044


  **** Optimisation achieved ****


  Final energy =     -52.60817257 eV
  Final Gnorm  =       0.00037541

  Components of energy : 

--------------------------------------------------------------------------------
  Interatomic potentials     =           7.05615258 eV
  Monopole - monopole (real) =         -11.67166836 eV
  Monopole - monopole (recip)=         -47.99265678 eV
  Monopole - monopole (total)=         -59.66432514 eV
--------------------------------------------------------------------------------
  Total lattice energy       =         -52.60817257 eV
--------------------------------------------------------------------------------
  Total lattice energy       =           -5075.8845 kJ/(mole unit cells)
--------------------------------------------------------------------------------

  Final asymmetric unit coordinates :

--------------------------------------------------------------------------------
   No.  Atomic        x           y           z         Radius
        Label       (Frac)      (Frac)      (Frac)       (Angs) 
--------------------------------------------------------------------------------
     1  K     c     0.000000    0.000000    0.000000    0.000000
     2  Zn    c     0.000000    0.500000    0.000000    0.000000
     3  F     c     0.000000    0.500000    0.500000    0.000000
     4  F     c     0.213460    0.713460    0.000000    0.000000
     5  F     s     0.000000    0.500000    0.500000    0.000000
     6  F     s     0.210212    0.710212    0.000000    0.000000
--------------------------------------------------------------------------------

  Final Cartesian lattice vectors (Angstroms) :

        7.102018    0.000000    0.000000
        0.000000    7.102018    0.000000
        0.000000    0.000000    4.071659


  Final cell parameters and derivatives :

--------------------------------------------------------------------------------
       a            7.102018 Angstrom     dE/de1(xx)    -0.000333 eV/strain
       b            7.102018 Angstrom     dE/de2(yy)     0.000000 eV/strain
       c            4.071659 Angstrom     dE/de3(zz)    -0.000051 eV/strain
       alpha       90.000000 Degrees      dE/de4(yz)     0.000000 eV/strain
       beta        90.000000 Degrees      dE/de5(xz)     0.000000 eV/strain
       gamma       90.000000 Degrees      dE/de6(xy)     0.000000 eV/strain
--------------------------------------------------------------------------------

  Primitive cell volume =           205.369043 Angs**3

  Density of cell =      2.611540 g/cm**3

  Non-primitive cell volume =           205.369043 Angs**3


  Final internal derivatives :

--------------------------------------------------------------------------------
   No.  Atomic          a             b             c           Radius
        Label          (eV)          (eV)          (eV)        (eV/Angs)
--------------------------------------------------------------------------------
      1 K     c       0.000000      0.000000      0.000000      0.000000
      2 Zn    c       0.000000      0.000000      0.000000      0.000000
      3 F     c       0.000000      0.000000      0.000000      0.000000
      4 F     c      -0.000857      0.000000      0.000000      0.000000
      5 F     s       0.000000      0.000000      0.000000      0.000000
      6 F     s       0.001186      0.000000      0.000000      0.000000
--------------------------------------------------------------------------------
  Maximum abs         0.001186      0.000000      0.000000      0.000000
--------------------------------------------------------------------------------


  Born effective charge tensors : 

-------------------------------------------------------------------------------
  Atom             x           y             z
-------------------------------------------------------------------------------
   1 K     x       0.7556     -0.0019      0.0000
           y       0.0019      0.7556      0.0000
           z       0.0000      0.0000      0.8905
-------------------------------------------------------------------------------
   2 Zn    x       1.5125     -0.1525      0.0000
           y      -0.1525      1.5125      0.0000
           z       0.0000      0.0000      1.2504
-------------------------------------------------------------------------------
   3 F     x      -0.7551      0.0072      0.0000
           y       0.0072     -0.7551      0.0000
           z       0.0000      0.0000     -0.6299
-------------------------------------------------------------------------------
   4 F     x      -0.7565     -0.1446      0.0000
           y      -0.1446     -0.7565      0.0000
           z       0.0000      0.0000     -0.7556
-------------------------------------------------------------------------------




  Elastic Constant Matrix: (Units=GPa)

-------------------------------------------------------------------------------
  Indices      1         2         3         4         5         6    
-------------------------------------------------------------------------------
       1     53.9882   12.5604   -1.9847    0.0000    0.0000    0.0000
       2     12.5604   53.9882   -1.9847    0.0000    0.0000    0.0000
       3     -1.9847   -1.9847   89.0208    0.0000    0.0000    0.0000
       4      0.0000    0.0000    0.0000    1.8003    0.0000    0.0000
       5      0.0000    0.0000    0.0000    0.0000    1.8003    0.0000
       6      0.0000    0.0000    0.0000    0.0000    0.0000   12.3592
-------------------------------------------------------------------------------


  Elastic Compliance Matrix: (Units=1/GPa)

-------------------------------------------------------------------------------
  Indices      1         2         3         4         5         6    
-------------------------------------------------------------------------------
       1    0.019592 -0.004546  0.000335  0.000000  0.000000  0.000000
       2   -0.004546  0.019592  0.000335  0.000000  0.000000  0.000000
       3    0.000335  0.000335  0.011248  0.000000  0.000000  0.000000
       4    0.000000  0.000000  0.000000  0.555449  0.000000  0.000000
       5    0.000000  0.000000  0.000000  0.000000  0.555449  0.000000
       6    0.000000  0.000000  0.000000  0.000000  0.000000  0.080912
-------------------------------------------------------------------------------

  Mechanical properties :

-------------------------------------------------------------------------------
  Convention :                    Reuss         Voigt         Hill
-------------------------------------------------------------------------------
  Bulk  Modulus (GPa)     =      23.42834      23.79770      23.61302
  Shear Modulus (GPa)     =       3.95501      15.75239       9.85370
-------------------------------------------------------------------------------
  Velocity S-wave (km/s)  =       1.23062       2.45598       1.94246
  Velocity P-wave (km/s)  =       3.31517       4.14186       3.75135
-------------------------------------------------------------------------------
  Compressibility (1/GPa) =    0.04268335
-------------------------------------------------------------------------------
  Stress axis :                     x             y             z
-------------------------------------------------------------------------------
  Youngs Moduli (GPa)     =      51.03994      51.03994      88.90242
-------------------------------------------------------------------------------
  Poissons Ratio (x)      =                     0.23202      -0.02982
  Poissons Ratio (y)      =       0.23202                    -0.02982
  Poissons Ratio (z)      =      -0.01712      -0.01712
-------------------------------------------------------------------------------


  Piezoelectric Strain Matrix: (Units=C/m**2)

-------------------------------------------------------------------------------
  Indices      1         2         3         4         5         6    
-------------------------------------------------------------------------------
       x     0.00000   0.00000   0.00000   0.00000   0.00000   0.00000
       y     0.00000   0.00000   0.00000   0.00000   0.00000   0.00000
       z     0.00000   0.00000   0.00000   0.00000   0.00000   0.00000
-------------------------------------------------------------------------------


  Piezoelectric Stress Matrix: (Units=10**-11 C/N)

-------------------------------------------------------------------------------
  Indices      1         2         3         4         5         6    
-------------------------------------------------------------------------------
       x     0.00000   0.00000   0.00000   0.00000   0.00000   0.00000
       y     0.00000   0.00000   0.00000   0.00000   0.00000   0.00000
       z     0.00000   0.00000   0.00000   0.00000   0.00000   0.00000
-------------------------------------------------------------------------------


  Static dielectric constant tensor : 

-------------------------------------------------------------------------------
              x         y         z
-------------------------------------------------------------------------------
       x     2.01982   0.00000   0.00000
       y     0.00000   2.01982   0.00000
       z     0.00000   0.00000   1.06067
--------------------------------------------------------------------------------

  High frequency dielectric constant tensor : 

-------------------------------------------------------------------------------
              x         y         z
-------------------------------------------------------------------------------
       x     1.39168   0.00000   0.00000
       y     0.00000   1.39168   0.00000
       z     0.00000   0.00000   1.38062
-------------------------------------------------------------------------------

  Static refractive indices : 

-------------------------------------------------------------------------------
    1 =    1.02989      2 =    1.42120      3 =    1.42120
-------------------------------------------------------------------------------

  High frequency refractive indices : 

-------------------------------------------------------------------------------
    1 =    1.17500      2 =    1.17970      3 =    1.17970
-------------------------------------------------------------------------------


  Time to end of optimisation =       0.0522 seconds


  Peak dynamic memory used =       0.59 MB 


  Timing analysis for GULP :

--------------------------------------------------------------------------------
  Task / Subroutine                                          Time (Seconds)
--------------------------------------------------------------------------------
  Calculation of reciprocal space energy and derivatives          0.0009
  Calculation of reciprocal space energy using symmetry           0.0043
  Calculation of real space energy and derivatives                0.0039
  Calculation of real space energy using symmetry                 0.0393
  Symmetry generation of equivalent positions                     0.0005
--------------------------------------------------------------------------------
  Total CPU time                                                  0.0522
--------------------------------------------------------------------------------


  CIF file written as perov.cif                                               


  Job Finished at 12:49.34 22nd February   2017                               

