********************************************************************************
*                       GENERAL UTILITY LATTICE PROGRAM                        *
*                                 Julian Gale                                  *
*                      Nanochemistry Research Institute                        *
*                           Department of Chemistry                            *
*                    Curtin University, Western Australia                      *
********************************************************************************
* Version = 4.3.2 * Last modified =  3rd March 2015                            *
********************************************************************************
*  optimise     - perform optimisation run                                     *
*  conp         - constant pressure calculation                                *
*  property     - calculate properties for final geometry                      *
********************************************************************************

  Job Started  at 12:49.35 22nd February   2017                               

  Number of CPUs =     1


  Total number of configurations input =   1

********************************************************************************
*  Input for Configuration =   1                                               *
********************************************************************************

  Formula = K2Zn2F6                                                     

  Number of irreducible atoms/shells =       6


  Total number atoms/shells =      16

  Dimensionality = 3               :  Bulk   


  Symmetry :

  Crystal family                   :  Tetragonal  
  Crystal class  (Groth - 1921)    :  Ditetragonal Dipyramidal             

  Space group (centrosymmetric)    :  P 4/M B M       

  Patterson group                  :  P 4/m m m

  Cartesian lattice vectors (Angstroms) :

        4.200000    0.000000    0.000000
        0.000000    4.200000    0.000000
        0.000000    0.000000    4.200000

  Cell parameters (Angstroms/Degrees):

  a =       4.2000    alpha =  90.0000
  b =       4.2000    beta  =  90.0000
  c =       4.2000    gamma =  90.0000

  Initial cell volume =          74.088000 Angs**3

  Temperature of configuration =  0.000     K 

  Pressure of configuration =         0.000 GPa 

  Fractional coordinates of asymmetric unit :

--------------------------------------------------------------------------------
   No.  Atomic       x           y          z         Charge      Occupancy
        Label      (Frac)      (Frac)     (Frac)        (e)         (Frac)  
--------------------------------------------------------------------------------
      1 K     c    0.000000    0.000000    0.000000     1.10000    1.000000    
      2 Zn    c    0.000000    0.500000    0.000000     1.50000    1.000000    
      3 F     c    0.000000    0.500000    0.500000     0.37800    1.000000    
      4 F     c    0.227100 *  0.727100    0.000000     0.37800    1.000000    
      5 F     s    0.000000    0.500000    0.500000    -1.24467    1.000000    
      6 F     s    0.227100 *  0.727100    0.000000    -1.24467    1.000000    
--------------------------------------------------------------------------------


  Constraints : 

--------------------------------------------------------------------------------
  Constraint no.      Unconstrained     Constrained    Coefficient    Offset
                         Variable         Variable
--------------------------------------------------------------------------------
           1              Strain 1        Strain 2       1.00000      0.0000
           2                 4 x             4 y         1.00000      0.5000
           3                 6 x             6 y         1.00000      0.5000
--------------------------------------------------------------------------------


********************************************************************************
*  General input information                                                   *
********************************************************************************

  Species output for all configurations : 

--------------------------------------------------------------------------------
  Species    Type    Atomic    Atomic    Charge       Radii (Angs)     Library
                     Number     Mass       (e)     Cova   Ionic  VDW   Symbol
--------------------------------------------------------------------------------
    K        Core       19      39.10   1.100000   1.330  0.000  2.800          
    Zn       Core       30      65.39   1.500000   1.450  0.000  2.160          
    F        Core        9      19.00   0.378000   0.710  0.000  1.300          
    F        Shell       9       0.00  -1.244667   0.710  0.000  1.300          
--------------------------------------------------------------------------------


  Lattice summation method               =    Ewald          (3-D)
                                         =    Parry          (2-D)
                                         =    Saunders et al (1-D)
  Accuracy factor for lattice sums       =   12.000


  Time limit = Infinity

  Maximum range for interatomic potentials =    100000.000000 Angstroms

  General interatomic potentials :

--------------------------------------------------------------------------------
Atom  Types   Potential         A         B         C         D     Cutoffs(Ang)
  1     2                                                            Min    Max 
--------------------------------------------------------------------------------
K    c K    c Buckingham    0.219E+04 0.192      0.00      0.00     0.000 10.000
Zn   c F    s Buckingham    0.148E+04 0.266      0.00      0.00     0.000 10.000
F    s F    s Buckingham     912.     0.271      13.8      0.00     0.000 10.000
K    c F    s Buckingham    0.352E+04 0.267      0.00      0.00     0.000 10.000
F    c F    s Spring (c-s)   19.9      0.00      0.00      0.00     0.000  0.800
--------------------------------------------------------------------------------

********************************************************************************
*  Output for configuration   1                                                *
********************************************************************************


  Components of energy : 

--------------------------------------------------------------------------------
  Interatomic potentials     =         162.45946484 eV
  Monopole - monopole (real) =         -33.45919017 eV
  Monopole - monopole (recip)=         -47.48859983 eV
  Monopole - monopole (total)=         -80.94779001 eV
--------------------------------------------------------------------------------
  Total lattice energy       =          81.51167484 eV
--------------------------------------------------------------------------------
  Total lattice energy       =            7864.6306 kJ/(mole unit cells)
--------------------------------------------------------------------------------


  Number of variables =        4

  Maximum number of calculations  =          1000
  Maximum Hessian update interval =            10
  Maximum step size               =   1.000000000
  Maximum parameter tolerance     =   0.000010000
  Maximum function  tolerance     =   0.000010000
  Maximum gradient  tolerance     =   0.001000000
  Maximum gradient  component     =   0.010000000

  Symmetry constrained optimisation

  Symmetry used for second derivatives

  Cell parameters to be optimised using strains

  Newton-Raphson optimiser to be used

  BFGS hessian update to be used

  Start of bulk optimisation :

  Cycle:      0 Energy:        81.511675  Gnorm:    215.713777  CPU:    0.005
  ** Hessian calculated **
  Cycle:      1 Energy:       -48.756497  Gnorm:     22.214240  CPU:    0.013
  ** Hessian calculated **
  Cycle:      2 Energy:       -49.560287  Gnorm:      7.118765  CPU:    0.019
  Cycle:      3 Energy:       -49.671993  Gnorm:      0.171877  CPU:    0.022
  Cycle:      4 Energy:       -49.672563  Gnorm:      0.060879  CPU:    0.025
  Cycle:      5 Energy:       -49.672590  Gnorm:      0.031464  CPU:    0.029
  Cycle:      6 Energy:       -49.672669  Gnorm:      0.015343  CPU:    0.034
  ** Hessian calculated **
  Cycle:      7 Energy:       -49.672670  Gnorm:      0.017184  CPU:    0.039
  Cycle:      8 Energy:       -49.672671  Gnorm:      0.032561  CPU:    0.042
  Cycle:      9 Energy:       -49.672673  Gnorm:      0.021250  CPU:    0.045
  Cycle:     10 Energy:       -49.672677  Gnorm:      0.015326  CPU:    0.048
  Cycle:     11 Energy:       -49.672683  Gnorm:      0.016747  CPU:    0.051
  Cycle:     12 Energy:       -49.672692  Gnorm:      0.025376  CPU:    0.054
  Cycle:     13 Energy:       -49.672705  Gnorm:      0.038986  CPU:    0.058
  Cycle:     14 Energy:       -49.672769  Gnorm:      0.109485  CPU:    0.063
  Cycle:     15 Energy:       -49.672814  Gnorm:      0.176180  CPU:    0.067
  Cycle:     16 Energy:       -49.672837  Gnorm:      0.223344  CPU:    0.070
  ** Hessian calculated **
  Cycle:     17 Energy:       -49.672925  Gnorm:      0.024597  CPU:    0.076
  Cycle:     18 Energy:       -49.672935  Gnorm:      0.029461  CPU:    0.079


  **** Optimisation achieved ****


  Final energy =     -49.67293587 eV
  Final Gnorm  =       0.00030126

  Components of energy : 

--------------------------------------------------------------------------------
  Interatomic potentials     =           6.30315130 eV
  Monopole - monopole (real) =          -9.18394049 eV
  Monopole - monopole (recip)=         -46.79214668 eV
  Monopole - monopole (total)=         -55.97608717 eV
--------------------------------------------------------------------------------
  Total lattice energy       =         -49.67293587 eV
--------------------------------------------------------------------------------
  Total lattice energy       =           -4792.6790 kJ/(mole unit cells)
--------------------------------------------------------------------------------

  Final asymmetric unit coordinates :

--------------------------------------------------------------------------------
   No.  Atomic        x           y           z         Radius
        Label       (Frac)      (Frac)      (Frac)       (Angs) 
--------------------------------------------------------------------------------
     1  K     c     0.000000    0.000000    0.000000    0.000000
     2  Zn    c     0.000000    0.500000    0.000000    0.000000
     3  F     c     0.000000    0.500000    0.500000    0.000000
     4  F     c     0.241403    0.741403    0.000000    0.000000
     5  F     s     0.000000    0.500000    0.500000    0.000000
     6  F     s     0.240794    0.740794    0.000000    0.000000
--------------------------------------------------------------------------------

  Final Cartesian lattice vectors (Angstroms) :

        6.954374    0.000000    0.000000
        0.000000    6.954374    0.000000
        0.000000    0.000000    4.154882


  Final cell parameters and derivatives :

--------------------------------------------------------------------------------
       a            6.954374 Angstrom     dE/de1(xx)    -0.000226 eV/strain
       b            6.954374 Angstrom     dE/de2(yy)     0.000000 eV/strain
       c            4.154882 Angstrom     dE/de3(zz)    -0.000061 eV/strain
       alpha       90.000000 Degrees      dE/de4(yz)     0.000000 eV/strain
       beta        90.000000 Degrees      dE/de5(xz)     0.000000 eV/strain
       gamma       90.000000 Degrees      dE/de6(xy)     0.000000 eV/strain
--------------------------------------------------------------------------------

  Primitive cell volume =           200.943866 Angs**3

  Density of cell =      2.669051 g/cm**3

  Non-primitive cell volume =           200.943866 Angs**3


  Final internal derivatives :

--------------------------------------------------------------------------------
   No.  Atomic          a             b             c           Radius
        Label          (eV)          (eV)          (eV)        (eV/Angs)
--------------------------------------------------------------------------------
      1 K     c       0.000000      0.000000      0.000000      0.000000
      2 Zn    c       0.000000      0.000000      0.000000      0.000000
      3 F     c       0.000000      0.000000      0.000000      0.000000
      4 F     c      -0.001104      0.000000      0.000000      0.000000
      5 F     s       0.000000      0.000000      0.000000      0.000000
      6 F     s       0.000424      0.000000      0.000000      0.000000
--------------------------------------------------------------------------------
  Maximum abs         0.001104      0.000000      0.000000      0.000000
--------------------------------------------------------------------------------


  Born effective charge tensors : 

-------------------------------------------------------------------------------
  Atom             x           y             z
-------------------------------------------------------------------------------
   1 K     x       0.8972     -0.0014      0.0000
           y       0.0014      0.8972      0.0000
           z       0.0000      0.0000      1.0818
-------------------------------------------------------------------------------
   2 Zn    x       1.5129     -0.0326      0.0000
           y      -0.0326      1.5129      0.0000
           z       0.0000      0.0000      1.0722
-------------------------------------------------------------------------------
   3 F     x      -0.8083      0.0020      0.0000
           y       0.0020     -0.8083      0.0000
           z       0.0000      0.0000     -0.6506
-------------------------------------------------------------------------------
   4 F     x      -0.8009     -0.2223      0.0000
           y      -0.2223     -0.8009      0.0000
           z       0.0000      0.0000     -0.7517
-------------------------------------------------------------------------------




  Elastic Constant Matrix: (Units=GPa)

-------------------------------------------------------------------------------
  Indices      1         2         3         4         5         6    
-------------------------------------------------------------------------------
       1     65.2717   19.9444   -2.1825    0.0000    0.0000    0.0000
       2     19.9444   65.2717   -2.1825    0.0000    0.0000    0.0000
       3     -2.1825   -2.1825   82.2021    0.0000    0.0000    0.0000
       4      0.0000    0.0000    0.0000    2.6278    0.0000    0.0000
       5      0.0000    0.0000    0.0000    0.0000    2.6278    0.0000
       6      0.0000    0.0000    0.0000    0.0000    0.0000   29.0185
-------------------------------------------------------------------------------


  Elastic Compliance Matrix: (Units=1/GPa)

-------------------------------------------------------------------------------
  Indices      1         2         3         4         5         6    
-------------------------------------------------------------------------------
       1    0.016906 -0.005155  0.000312  0.000000  0.000000  0.000000
       2   -0.005155  0.016906  0.000312  0.000000  0.000000  0.000000
       3    0.000312  0.000312  0.012182  0.000000  0.000000  0.000000
       4    0.000000  0.000000  0.000000  0.380550  0.000000  0.000000
       5    0.000000  0.000000  0.000000  0.000000  0.380550  0.000000
       6    0.000000  0.000000  0.000000  0.000000  0.000000  0.034461
-------------------------------------------------------------------------------

  Mechanical properties :

-------------------------------------------------------------------------------
  Convention :                    Reuss         Voigt         Hill
-------------------------------------------------------------------------------
  Bulk  Modulus (GPa)     =      27.07725      27.10047      27.08886
  Shear Modulus (GPa)     =       5.79422      19.99921      12.89671
-------------------------------------------------------------------------------
  Velocity S-wave (km/s)  =       1.47339       2.73733       2.19817
  Velocity P-wave (km/s)  =       3.61101       4.48824       4.07331
-------------------------------------------------------------------------------
  Compressibility (1/GPa) =    0.03693138
-------------------------------------------------------------------------------
  Stress axis :                     x             y             z
-------------------------------------------------------------------------------
  Youngs Moduli (GPa)     =      59.14950      59.14950      82.09033
-------------------------------------------------------------------------------
  Poissons Ratio (x)      =                     0.30494      -0.02561
  Poissons Ratio (y)      =       0.30494                    -0.02561
  Poissons Ratio (z)      =      -0.01845      -0.01845
-------------------------------------------------------------------------------


  Piezoelectric Strain Matrix: (Units=C/m**2)

-------------------------------------------------------------------------------
  Indices      1         2         3         4         5         6    
-------------------------------------------------------------------------------
       x     0.00000   0.00000   0.00000   0.00000   0.00000   0.00000
       y     0.00000   0.00000   0.00000   0.00000   0.00000   0.00000
       z     0.00000   0.00000   0.00000   0.00000   0.00000   0.00000
-------------------------------------------------------------------------------


  Piezoelectric Stress Matrix: (Units=10**-11 C/N)

-------------------------------------------------------------------------------
  Indices      1         2         3         4         5         6    
-------------------------------------------------------------------------------
       x     0.00000   0.00000   0.00000   0.00000   0.00000   0.00000
       y     0.00000   0.00000   0.00000   0.00000   0.00000   0.00000
       z     0.00000   0.00000   0.00000   0.00000   0.00000   0.00000
-------------------------------------------------------------------------------


  Static dielectric constant tensor : 

-------------------------------------------------------------------------------
              x         y         z
-------------------------------------------------------------------------------
       x    -5.53523   0.00000   0.00000
       y     0.00000  -5.53523   0.00000
       z     0.00000   0.00000   0.72512
--------------------------------------------------------------------------------

  High frequency dielectric constant tensor : 

-------------------------------------------------------------------------------
              x         y         z
-------------------------------------------------------------------------------
       x     1.41895   0.00000   0.00000
       y     0.00000   1.41895   0.00000
       z     0.00000   0.00000   1.38873
-------------------------------------------------------------------------------

  Static refractive indices : 

-------------------------------------------------------------------------------
    1 =   -2.35271      2 =   -2.35271      3 =    0.85154
-------------------------------------------------------------------------------

  High frequency refractive indices : 

-------------------------------------------------------------------------------
    1 =    1.17844      2 =    1.19120      3 =    1.19120
-------------------------------------------------------------------------------


  Time to end of optimisation =       0.0878 seconds


  Peak dynamic memory used =       0.59 MB 


  Timing analysis for GULP :

--------------------------------------------------------------------------------
  Task / Subroutine                                          Time (Seconds)
--------------------------------------------------------------------------------
  Calculation of reciprocal space energy and derivatives          0.0011
  Calculation of reciprocal space energy using symmetry           0.0076
  Calculation of real space energy and derivatives                0.0037
  Calculation of real space energy using symmetry                 0.0708
  Symmetry generation of equivalent positions                     0.0005
--------------------------------------------------------------------------------
  Total CPU time                                                  0.0879
--------------------------------------------------------------------------------


  CIF file written as perov.cif                                               


  Job Finished at 12:49.35 22nd February   2017                               

