********************************************************************************
*                       GENERAL UTILITY LATTICE PROGRAM                        *
*                                 Julian Gale                                  *
*                      Nanochemistry Research Institute                        *
*                           Department of Chemistry                            *
*                    Curtin University, Western Australia                      *
********************************************************************************
* Version = 4.3.2 * Last modified =  3rd March 2015                            *
********************************************************************************
*  optimise     - perform optimisation run                                     *
*  conp         - constant pressure calculation                                *
*  property     - calculate properties for final geometry                      *
********************************************************************************

  Job Started  at 12:49.34 22nd February   2017                               

  Number of CPUs =     1


  Total number of configurations input =   1

********************************************************************************
*  Input for Configuration =   1                                               *
********************************************************************************

  Formula = K2Zn2F6                                                     

  Number of irreducible atoms/shells =       6


  Total number atoms/shells =      16

  Dimensionality = 3               :  Bulk   


  Symmetry :

  Crystal family                   :  Tetragonal  
  Crystal class  (Groth - 1921)    :  Ditetragonal Dipyramidal             

  Space group (centrosymmetric)    :  P 4/M B M       

  Patterson group                  :  P 4/m m m

  Cartesian lattice vectors (Angstroms) :

        4.200000    0.000000    0.000000
        0.000000    4.200000    0.000000
        0.000000    0.000000    4.200000

  Cell parameters (Angstroms/Degrees):

  a =       4.2000    alpha =  90.0000
  b =       4.2000    beta  =  90.0000
  c =       4.2000    gamma =  90.0000

  Initial cell volume =          74.088000 Angs**3

  Temperature of configuration =  0.000     K 

  Pressure of configuration =         0.000 GPa 

  Fractional coordinates of asymmetric unit :

--------------------------------------------------------------------------------
   No.  Atomic       x           y          z         Charge      Occupancy
        Label      (Frac)      (Frac)     (Frac)        (e)         (Frac)  
--------------------------------------------------------------------------------
      1 K     c    0.000000    0.000000    0.000000     0.90000    1.000000    
      2 Zn    c    0.000000    0.500000    0.000000     1.60000    1.000000    
      3 F     c    0.000000    0.500000    0.500000     0.37800    1.000000    
      4 F     c    0.227100 *  0.727100    0.000000     0.37800    1.000000    
      5 F     s    0.000000    0.500000    0.500000    -1.21133    1.000000    
      6 F     s    0.227100 *  0.727100    0.000000    -1.21133    1.000000    
--------------------------------------------------------------------------------


  Constraints : 

--------------------------------------------------------------------------------
  Constraint no.      Unconstrained     Constrained    Coefficient    Offset
                         Variable         Variable
--------------------------------------------------------------------------------
           1              Strain 1        Strain 2       1.00000      0.0000
           2                 4 x             4 y         1.00000      0.5000
           3                 6 x             6 y         1.00000      0.5000
--------------------------------------------------------------------------------


********************************************************************************
*  General input information                                                   *
********************************************************************************

  Species output for all configurations : 

--------------------------------------------------------------------------------
  Species    Type    Atomic    Atomic    Charge       Radii (Angs)     Library
                     Number     Mass       (e)     Cova   Ionic  VDW   Symbol
--------------------------------------------------------------------------------
    K        Core       19      39.10   0.900000   1.330  0.000  2.800          
    Zn       Core       30      65.39   1.600000   1.450  0.000  2.160          
    F        Core        9      19.00   0.378000   0.710  0.000  1.300          
    F        Shell       9       0.00  -1.211333   0.710  0.000  1.300          
--------------------------------------------------------------------------------


  Lattice summation method               =    Ewald          (3-D)
                                         =    Parry          (2-D)
                                         =    Saunders et al (1-D)
  Accuracy factor for lattice sums       =   12.000


  Time limit = Infinity

  Maximum range for interatomic potentials =    100000.000000 Angstroms

  General interatomic potentials :

--------------------------------------------------------------------------------
Atom  Types   Potential         A         B         C         D     Cutoffs(Ang)
  1     2                                                            Min    Max 
--------------------------------------------------------------------------------
K    c K    c Buckingham    0.219E+04 0.192      0.00      0.00     0.000 10.000
Zn   c F    s Buckingham    0.148E+04 0.266      0.00      0.00     0.000 10.000
F    s F    s Buckingham     912.     0.271      13.8      0.00     0.000 10.000
K    c F    s Buckingham    0.352E+04 0.267      0.00      0.00     0.000 10.000
F    c F    s Spring (c-s)   18.8      0.00      0.00      0.00     0.000  0.800
--------------------------------------------------------------------------------

********************************************************************************
*  Output for configuration   1                                                *
********************************************************************************


  Components of energy : 

--------------------------------------------------------------------------------
  Interatomic potentials     =         162.45946484 eV
  Monopole - monopole (real) =         -31.70637603 eV
  Monopole - monopole (recip)=         -45.38762212 eV
  Monopole - monopole (total)=         -77.09399815 eV
--------------------------------------------------------------------------------
  Total lattice energy       =          85.36546669 eV
--------------------------------------------------------------------------------
  Total lattice energy       =            8236.4626 kJ/(mole unit cells)
--------------------------------------------------------------------------------


  Number of variables =        4

  Maximum number of calculations  =          1000
  Maximum Hessian update interval =            10
  Maximum step size               =   1.000000000
  Maximum parameter tolerance     =   0.000010000
  Maximum function  tolerance     =   0.000010000
  Maximum gradient  tolerance     =   0.001000000
  Maximum gradient  component     =   0.010000000

  Symmetry constrained optimisation

  Symmetry used for second derivatives

  Cell parameters to be optimised using strains

  Newton-Raphson optimiser to be used

  BFGS hessian update to be used

  Start of bulk optimisation :

  Cycle:      0 Energy:        85.365467  Gnorm:    215.934684  CPU:    0.005
  ** Hessian calculated **
  Cycle:      1 Energy:       -46.336492  Gnorm:     25.183079  CPU:    0.012
  ** Hessian calculated **
  Cycle:      2 Energy:       -47.334578  Gnorm:      7.713913  CPU:    0.018
  Cycle:      3 Energy:       -47.537889  Gnorm:      2.214176  CPU:    0.021
  Cycle:      4 Energy:       -47.561337  Gnorm:      2.684558  CPU:    0.025
  Cycle:      5 Energy:       -47.566180  Gnorm:      0.289277  CPU:    0.028
  Cycle:      6 Energy:       -47.566580  Gnorm:      0.175096  CPU:    0.031
  Cycle:      7 Energy:       -47.566623  Gnorm:      0.023137  CPU:    0.034
  Cycle:      8 Energy:       -47.566628  Gnorm:      0.011128  CPU:    0.038
  Cycle:      9 Energy:       -47.566628  Gnorm:      0.001044  CPU:    0.041


  **** Optimisation achieved ****


  Final energy =     -47.56662832 eV
  Final Gnorm  =       0.00070067

  Components of energy : 

--------------------------------------------------------------------------------
  Interatomic potentials     =           6.21212437 eV
  Monopole - monopole (real) =          -9.57862211 eV
  Monopole - monopole (recip)=         -44.20013059 eV
  Monopole - monopole (total)=         -53.77875269 eV
--------------------------------------------------------------------------------
  Total lattice energy       =         -47.56662832 eV
--------------------------------------------------------------------------------
  Total lattice energy       =           -4589.4525 kJ/(mole unit cells)
--------------------------------------------------------------------------------

  Final asymmetric unit coordinates :

--------------------------------------------------------------------------------
   No.  Atomic        x           y           z         Radius
        Label       (Frac)      (Frac)      (Frac)       (Angs) 
--------------------------------------------------------------------------------
     1  K     c     0.000000    0.000000    0.000000    0.000000
     2  Zn    c     0.000000    0.500000    0.000000    0.000000
     3  F     c     0.000000    0.500000    0.500000    0.000000
     4  F     c     0.217791    0.717791    0.000000    0.000000
     5  F     s     0.000000    0.500000    0.500000    0.000000
     6  F     s     0.215067    0.715067    0.000000    0.000000
--------------------------------------------------------------------------------

  Final Cartesian lattice vectors (Angstroms) :

        7.142704    0.000000    0.000000
        0.000000    7.142704    0.000000
        0.000000    0.000000    4.139727


  Final cell parameters and derivatives :

--------------------------------------------------------------------------------
       a            7.142704 Angstrom     dE/de1(xx)    -0.000723 eV/strain
       b            7.142704 Angstrom     dE/de2(yy)     0.000000 eV/strain
       c            4.139727 Angstrom     dE/de3(zz)    -0.000239 eV/strain
       alpha       90.000000 Degrees      dE/de4(yz)     0.000000 eV/strain
       beta        90.000000 Degrees      dE/de5(xz)     0.000000 eV/strain
       gamma       90.000000 Degrees      dE/de6(xy)     0.000000 eV/strain
--------------------------------------------------------------------------------

  Primitive cell volume =           211.201496 Angs**3

  Density of cell =      2.539421 g/cm**3

  Non-primitive cell volume =           211.201496 Angs**3


  Final internal derivatives :

--------------------------------------------------------------------------------
   No.  Atomic          a             b             c           Radius
        Label          (eV)          (eV)          (eV)        (eV/Angs)
--------------------------------------------------------------------------------
      1 K     c       0.000000      0.000000      0.000000      0.000000
      2 Zn    c       0.000000      0.000000      0.000000      0.000000
      3 F     c       0.000000      0.000000      0.000000      0.000000
      4 F     c      -0.002310      0.000000      0.000000      0.000000
      5 F     s       0.000000      0.000000      0.000000      0.000000
      6 F     s       0.001392      0.000000      0.000000      0.000000
--------------------------------------------------------------------------------
  Maximum abs         0.002310      0.000000      0.000000      0.000000
--------------------------------------------------------------------------------


  Born effective charge tensors : 

-------------------------------------------------------------------------------
  Atom             x           y             z
-------------------------------------------------------------------------------
   1 K     x       0.7516     -0.0021      0.0000
           y       0.0021      0.7516      0.0000
           z       0.0000      0.0000      0.8891
-------------------------------------------------------------------------------
   2 Zn    x       1.4657     -0.1250      0.0000
           y      -0.1250      1.4657      0.0000
           z       0.0000      0.0000      1.1784
-------------------------------------------------------------------------------
   3 F     x      -0.7383      0.0061      0.0000
           y       0.0061     -0.7383      0.0000
           z       0.0000      0.0000     -0.6120
-------------------------------------------------------------------------------
   4 F     x      -0.7395     -0.1537      0.0000
           y      -0.1537     -0.7395      0.0000
           z       0.0000      0.0000     -0.7278
-------------------------------------------------------------------------------




  Elastic Constant Matrix: (Units=GPa)

-------------------------------------------------------------------------------
  Indices      1         2         3         4         5         6    
-------------------------------------------------------------------------------
       1     50.1546   12.6376   -1.7958    0.0000    0.0000    0.0000
       2     12.6376   50.1546   -1.7958    0.0000    0.0000    0.0000
       3     -1.7958   -1.7958   79.3996    0.0000    0.0000    0.0000
       4      0.0000    0.0000    0.0000    1.7583    0.0000    0.0000
       5      0.0000    0.0000    0.0000    0.0000    1.7583    0.0000
       6      0.0000    0.0000    0.0000    0.0000    0.0000   13.4539
-------------------------------------------------------------------------------


  Elastic Compliance Matrix: (Units=1/GPa)

-------------------------------------------------------------------------------
  Indices      1         2         3         4         5         6    
-------------------------------------------------------------------------------
       1    0.021300 -0.005354  0.000361  0.000000  0.000000  0.000000
       2   -0.005354  0.021300  0.000361  0.000000  0.000000  0.000000
       3    0.000361  0.000361  0.012611  0.000000  0.000000  0.000000
       4    0.000000  0.000000  0.000000  0.568716  0.000000  0.000000
       5    0.000000  0.000000  0.000000  0.000000  0.568716  0.000000
       6    0.000000  0.000000  0.000000  0.000000  0.000000  0.074328
-------------------------------------------------------------------------------

  Mechanical properties :

-------------------------------------------------------------------------------
  Convention :                    Reuss         Voigt         Hill
-------------------------------------------------------------------------------
  Bulk  Modulus (GPa)     =      21.76478      21.97788      21.87133
  Shear Modulus (GPa)     =       3.87131      14.77164       9.32147
-------------------------------------------------------------------------------
  Velocity S-wave (km/s)  =       1.23470       2.41183       1.91591
  Velocity P-wave (km/s)  =       3.25629       4.05100       3.67519
-------------------------------------------------------------------------------
  Compressibility (1/GPa) =    0.04594580
-------------------------------------------------------------------------------
  Stress axis :                     x             y             z
-------------------------------------------------------------------------------
  Youngs Moduli (GPa)     =      46.94747      46.94747      79.29691
-------------------------------------------------------------------------------
  Poissons Ratio (x)      =                     0.25137      -0.02860
  Poissons Ratio (y)      =       0.25137                    -0.02860
  Poissons Ratio (z)      =      -0.01693      -0.01693
-------------------------------------------------------------------------------


  Piezoelectric Strain Matrix: (Units=C/m**2)

-------------------------------------------------------------------------------
  Indices      1         2         3         4         5         6    
-------------------------------------------------------------------------------
       x     0.00000   0.00000   0.00000   0.00000   0.00000   0.00000
       y     0.00000   0.00000   0.00000   0.00000   0.00000   0.00000
       z     0.00000   0.00000   0.00000   0.00000   0.00000   0.00000
-------------------------------------------------------------------------------


  Piezoelectric Stress Matrix: (Units=10**-11 C/N)

-------------------------------------------------------------------------------
  Indices      1         2         3         4         5         6    
-------------------------------------------------------------------------------
       x     0.00000   0.00000   0.00000   0.00000   0.00000   0.00000
       y     0.00000   0.00000   0.00000   0.00000   0.00000   0.00000
       z     0.00000   0.00000   0.00000   0.00000   0.00000   0.00000
-------------------------------------------------------------------------------


  Static dielectric constant tensor : 

-------------------------------------------------------------------------------
              x         y         z
-------------------------------------------------------------------------------
       x     1.43055   0.00000   0.00000
       y     0.00000   1.43055   0.00000
       z     0.00000   0.00000   1.01476
--------------------------------------------------------------------------------

  High frequency dielectric constant tensor : 

-------------------------------------------------------------------------------
              x         y         z
-------------------------------------------------------------------------------
       x     1.38579   0.00000   0.00000
       y     0.00000   1.38579   0.00000
       z     0.00000   0.00000   1.37122
-------------------------------------------------------------------------------

  Static refractive indices : 

-------------------------------------------------------------------------------
    1 =    1.00735      2 =    1.19606      3 =    1.19606
-------------------------------------------------------------------------------

  High frequency refractive indices : 

-------------------------------------------------------------------------------
    1 =    1.17099      2 =    1.17720      3 =    1.17720
-------------------------------------------------------------------------------


  Time to end of optimisation =       0.0490 seconds


  Peak dynamic memory used =       0.59 MB 


  Timing analysis for GULP :

--------------------------------------------------------------------------------
  Task / Subroutine                                          Time (Seconds)
--------------------------------------------------------------------------------
  Calculation of reciprocal space energy and derivatives          0.0009
  Calculation of reciprocal space energy using symmetry           0.0040
  Calculation of real space energy and derivatives                0.0037
  Calculation of real space energy using symmetry                 0.0367
  Symmetry generation of equivalent positions                     0.0004
--------------------------------------------------------------------------------
  Total CPU time                                                  0.0490
--------------------------------------------------------------------------------


  CIF file written as perov.cif                                               


  Job Finished at 12:49.34 22nd February   2017                               

