********************************************************************************
*                       GENERAL UTILITY LATTICE PROGRAM                        *
*                                 Julian Gale                                  *
*                      Nanochemistry Research Institute                        *
*                           Department of Chemistry                            *
*                    Curtin University, Western Australia                      *
********************************************************************************
* Version = 4.3.2 * Last modified =  3rd March 2015                            *
********************************************************************************
*  optimise     - perform optimisation run                                     *
*  conp         - constant pressure calculation                                *
*  property     - calculate properties for final geometry                      *
********************************************************************************

  Job Started  at 12:49.36 22nd February   2017                               

  Number of CPUs =     1


  Total number of configurations input =   1

********************************************************************************
*  Input for Configuration =   1                                               *
********************************************************************************

  Formula = K2Zn2F6                                                     

  Number of irreducible atoms/shells =       6


  Total number atoms/shells =      16

  Dimensionality = 3               :  Bulk   


  Symmetry :

  Crystal family                   :  Tetragonal  
  Crystal class  (Groth - 1921)    :  Ditetragonal Dipyramidal             

  Space group (centrosymmetric)    :  P 4/M B M       

  Patterson group                  :  P 4/m m m

  Cartesian lattice vectors (Angstroms) :

        4.200000    0.000000    0.000000
        0.000000    4.200000    0.000000
        0.000000    0.000000    4.200000

  Cell parameters (Angstroms/Degrees):

  a =       4.2000    alpha =  90.0000
  b =       4.2000    beta  =  90.0000
  c =       4.2000    gamma =  90.0000

  Initial cell volume =          74.088000 Angs**3

  Temperature of configuration =  0.000     K 

  Pressure of configuration =         0.000 GPa 

  Fractional coordinates of asymmetric unit :

--------------------------------------------------------------------------------
   No.  Atomic       x           y          z         Charge      Occupancy
        Label      (Frac)      (Frac)     (Frac)        (e)         (Frac)  
--------------------------------------------------------------------------------
      1 K     c    0.000000    0.000000    0.000000     1.10000    1.000000    
      2 Zn    c    0.000000    0.500000    0.000000     2.20000    1.000000    
      3 F     c    0.000000    0.500000    0.500000     0.37800    1.000000    
      4 F     c    0.227100 *  0.727100    0.000000     0.37800    1.000000    
      5 F     s    0.000000    0.500000    0.500000    -1.47800    1.000000    
      6 F     s    0.227100 *  0.727100    0.000000    -1.47800    1.000000    
--------------------------------------------------------------------------------


  Constraints : 

--------------------------------------------------------------------------------
  Constraint no.      Unconstrained     Constrained    Coefficient    Offset
                         Variable         Variable
--------------------------------------------------------------------------------
           1              Strain 1        Strain 2       1.00000      0.0000
           2                 4 x             4 y         1.00000      0.5000
           3                 6 x             6 y         1.00000      0.5000
--------------------------------------------------------------------------------


********************************************************************************
*  General input information                                                   *
********************************************************************************

  Species output for all configurations : 

--------------------------------------------------------------------------------
  Species    Type    Atomic    Atomic    Charge       Radii (Angs)     Library
                     Number     Mass       (e)     Cova   Ionic  VDW   Symbol
--------------------------------------------------------------------------------
    K        Core       19      39.10   1.100000   1.330  0.000  2.800          
    Zn       Core       30      65.39   2.200000   1.450  0.000  2.160          
    F        Core        9      19.00   0.378000   0.710  0.000  1.300          
    F        Shell       9       0.00  -1.478000   0.710  0.000  1.300          
--------------------------------------------------------------------------------


  Lattice summation method               =    Ewald          (3-D)
                                         =    Parry          (2-D)
                                         =    Saunders et al (1-D)
  Accuracy factor for lattice sums       =   12.000


  Time limit = Infinity

  Maximum range for interatomic potentials =    100000.000000 Angstroms

  General interatomic potentials :

--------------------------------------------------------------------------------
Atom  Types   Potential         A         B         C         D     Cutoffs(Ang)
  1     2                                                            Min    Max 
--------------------------------------------------------------------------------
K    c K    c Buckingham    0.219E+04 0.192      0.00      0.00     0.000 10.000
Zn   c F    s Buckingham    0.148E+04 0.266      0.00      0.00     0.000 10.000
F    s F    s Buckingham     912.     0.271      13.8      0.00     0.000 10.000
K    c F    s Buckingham    0.352E+04 0.267      0.00      0.00     0.000 10.000
F    c F    s Spring (c-s)   28.0      0.00      0.00      0.00     0.000  0.800
--------------------------------------------------------------------------------

********************************************************************************
*  Output for configuration   1                                                *
********************************************************************************


  Components of energy : 

--------------------------------------------------------------------------------
  Interatomic potentials     =         162.45946484 eV
  Monopole - monopole (real) =         -55.95031358 eV
  Monopole - monopole (recip)=         -80.61489324 eV
  Monopole - monopole (total)=        -136.56520682 eV
--------------------------------------------------------------------------------
  Total lattice energy       =          25.89425802 eV
--------------------------------------------------------------------------------
  Total lattice energy       =            2498.4001 kJ/(mole unit cells)
--------------------------------------------------------------------------------


  Number of variables =        4

  Maximum number of calculations  =          1000
  Maximum Hessian update interval =            10
  Maximum step size               =   1.000000000
  Maximum parameter tolerance     =   0.000010000
  Maximum function  tolerance     =   0.000010000
  Maximum gradient  tolerance     =   0.001000000
  Maximum gradient  component     =   0.010000000

  Symmetry constrained optimisation

  Symmetry used for second derivatives

  Cell parameters to be optimised using strains

  Newton-Raphson optimiser to be used

  BFGS hessian update to be used

  Start of bulk optimisation :

  Cycle:      0 Energy:        25.894258  Gnorm:    201.380975  CPU:    0.005
  ** Hessian calculated **
  Cycle:      1 Energy:       -89.251433  Gnorm:     30.651346  CPU:    0.012
  ** Hessian calculated **
  Cycle:      2 Energy:       -89.401667  Gnorm:     31.026525  CPU:    0.020
  Cycle:      3 Energy:       -91.363413  Gnorm:      6.321399  CPU:    0.024
  Cycle:      4 Energy:       -91.491209  Gnorm:      8.696367  CPU:    0.028
  Cycle:      5 Energy:       -91.680598  Gnorm:      2.586596  CPU:    0.031
  Cycle:      6 Energy:       -91.705329  Gnorm:      0.479591  CPU:    0.035
  Cycle:      7 Energy:       -91.707188  Gnorm:      0.340341  CPU:    0.038
  Cycle:      8 Energy:       -91.707240  Gnorm:      0.003911  CPU:    0.042
  Cycle:      9 Energy:       -91.707241  Gnorm:      0.004001  CPU:    0.045


  **** Optimisation achieved ****


  Final energy =     -91.70724086 eV
  Final Gnorm  =       0.00044610

  Components of energy : 

--------------------------------------------------------------------------------
  Interatomic potentials     =          13.77886080 eV
  Monopole - monopole (real) =         -27.44503844 eV
  Monopole - monopole (recip)=         -78.04106322 eV
  Monopole - monopole (total)=        -105.48610166 eV
--------------------------------------------------------------------------------
  Total lattice energy       =         -91.70724086 eV
--------------------------------------------------------------------------------
  Total lattice energy       =           -8848.3469 kJ/(mole unit cells)
--------------------------------------------------------------------------------

  Final asymmetric unit coordinates :

--------------------------------------------------------------------------------
   No.  Atomic        x           y           z         Radius
        Label       (Frac)      (Frac)      (Frac)       (Angs) 
--------------------------------------------------------------------------------
     1  K     c     0.000000    0.000000    0.000000    0.000000
     2  Zn    c     0.000000    0.500000    0.000000    0.000000
     3  F     c     0.000000    0.500000    0.500000    0.000000
     4  F     c     0.203775    0.703775    0.000000    0.000000
     5  F     s     0.000000    0.500000    0.500000    0.000000
     6  F     s     0.199168    0.699168    0.000000    0.000000
--------------------------------------------------------------------------------

  Final Cartesian lattice vectors (Angstroms) :

        6.710390    0.000000    0.000000
        0.000000    6.710390    0.000000
        0.000000    0.000000    3.728961


  Final cell parameters and derivatives :

--------------------------------------------------------------------------------
       a            6.710390 Angstrom     dE/de1(xx)     0.000993 eV/strain
       b            6.710390 Angstrom     dE/de2(yy)     0.000000 eV/strain
       c            3.728961 Angstrom     dE/de3(zz)     0.000071 eV/strain
       alpha       90.000000 Degrees      dE/de4(yz)     0.000000 eV/strain
       beta        90.000000 Degrees      dE/de5(xz)     0.000000 eV/strain
       gamma       90.000000 Degrees      dE/de6(xy)     0.000000 eV/strain
--------------------------------------------------------------------------------

  Primitive cell volume =           167.912589 Angs**3

  Density of cell =      3.194099 g/cm**3

  Non-primitive cell volume =           167.912589 Angs**3


  Final internal derivatives :

--------------------------------------------------------------------------------
   No.  Atomic          a             b             c           Radius
        Label          (eV)          (eV)          (eV)        (eV/Angs)
--------------------------------------------------------------------------------
      1 K     c       0.000000      0.000000      0.000000      0.000000
      2 Zn    c       0.000000      0.000000      0.000000      0.000000
      3 F     c       0.000000      0.000000      0.000000      0.000000
      4 F     c       0.001163      0.000000      0.000000      0.000000
      5 F     s       0.000000      0.000000      0.000000      0.000000
      6 F     s      -0.000917      0.000000      0.000000      0.000000
--------------------------------------------------------------------------------
  Maximum abs         0.001163      0.000000      0.000000      0.000000
--------------------------------------------------------------------------------


  Born effective charge tensors : 

-------------------------------------------------------------------------------
  Atom             x           y             z
-------------------------------------------------------------------------------
   1 K     x       0.9402     -0.0001      0.0000
           y       0.0001      0.9402      0.0000
           z       0.0000      0.0000      1.0925
-------------------------------------------------------------------------------
   2 Zn    x       1.7933     -0.2618      0.0000
           y      -0.2618      1.7933      0.0000
           z       0.0000      0.0000      1.5824
-------------------------------------------------------------------------------
   3 F     x      -0.9093      0.0126      0.0000
           y       0.0126     -0.9093      0.0000
           z       0.0000      0.0000     -0.7895
-------------------------------------------------------------------------------
   4 F     x      -0.9121     -0.1474      0.0000
           y      -0.1474     -0.9121      0.0000
           z       0.0000      0.0000     -0.9427
-------------------------------------------------------------------------------




  Elastic Constant Matrix: (Units=GPa)

-------------------------------------------------------------------------------
  Indices      1         2         3         4         5         6    
-------------------------------------------------------------------------------
       1    103.1564   18.8473   -4.0991    0.0000    0.0000    0.0000
       2     18.8473  103.1564   -4.0991    0.0000    0.0000    0.0000
       3     -4.0991   -4.0991  165.7206    0.0000    0.0000    0.0000
       4      0.0000    0.0000    0.0000    2.5136    0.0000    0.0000
       5      0.0000    0.0000    0.0000    0.0000    2.5136    0.0000
       6      0.0000    0.0000    0.0000    0.0000    0.0000   17.0863
-------------------------------------------------------------------------------


  Elastic Compliance Matrix: (Units=1/GPa)

-------------------------------------------------------------------------------
  Indices      1         2         3         4         5         6    
-------------------------------------------------------------------------------
       1    0.010036 -0.001825  0.000203  0.000000  0.000000  0.000000
       2   -0.001825  0.010036  0.000203  0.000000  0.000000  0.000000
       3    0.000203  0.000203  0.006044  0.000000  0.000000  0.000000
       4    0.000000  0.000000  0.000000  0.397840  0.000000  0.000000
       5    0.000000  0.000000  0.000000  0.000000  0.397840  0.000000
       6    0.000000  0.000000  0.000000  0.000000  0.000000  0.058527
-------------------------------------------------------------------------------

  Mechanical properties :

-------------------------------------------------------------------------------
  Convention :                    Reuss         Voigt         Hill
-------------------------------------------------------------------------------
  Bulk  Modulus (GPa)     =      42.96118      43.70354      43.33236
  Shear Modulus (GPa)     =       5.61217      28.51497      17.06357
-------------------------------------------------------------------------------
  Velocity S-wave (km/s)  =       1.32554       2.98787       2.31132
  Velocity P-wave (km/s)  =       3.97403       5.05824       4.54855
-------------------------------------------------------------------------------
  Compressibility (1/GPa) =    0.02327683
-------------------------------------------------------------------------------
  Stress axis :                     x             y             z
-------------------------------------------------------------------------------
  Youngs Moduli (GPa)     =      99.64513      99.64513     165.44517
-------------------------------------------------------------------------------
  Poissons Ratio (x)      =                     0.18190      -0.03360
  Poissons Ratio (y)      =       0.18190                    -0.03360
  Poissons Ratio (z)      =      -0.02024      -0.02024
-------------------------------------------------------------------------------


  Piezoelectric Strain Matrix: (Units=C/m**2)

-------------------------------------------------------------------------------
  Indices      1         2         3         4         5         6    
-------------------------------------------------------------------------------
       x     0.00000   0.00000   0.00000   0.00000   0.00000   0.00000
       y     0.00000   0.00000   0.00000   0.00000   0.00000   0.00000
       z     0.00000   0.00000   0.00000   0.00000   0.00000   0.00000
-------------------------------------------------------------------------------


  Piezoelectric Stress Matrix: (Units=10**-11 C/N)

-------------------------------------------------------------------------------
  Indices      1         2         3         4         5         6    
-------------------------------------------------------------------------------
       x     0.00000   0.00000   0.00000   0.00000   0.00000   0.00000
       y     0.00000   0.00000   0.00000   0.00000   0.00000   0.00000
       z     0.00000   0.00000   0.00000   0.00000   0.00000   0.00000
-------------------------------------------------------------------------------


  Static dielectric constant tensor : 

-------------------------------------------------------------------------------
              x         y         z
-------------------------------------------------------------------------------
       x     4.93460   0.00000   0.00000
       y     0.00000   4.93460   0.00000
       z     0.00000   0.00000   0.99267
--------------------------------------------------------------------------------

  High frequency dielectric constant tensor : 

-------------------------------------------------------------------------------
              x         y         z
-------------------------------------------------------------------------------
       x     1.45827   0.00000   0.00000
       y     0.00000   1.45827   0.00000
       z     0.00000   0.00000   1.45856
-------------------------------------------------------------------------------

  Static refractive indices : 

-------------------------------------------------------------------------------
    1 =    0.99633      2 =    2.22139      3 =    2.22139
-------------------------------------------------------------------------------

  High frequency refractive indices : 

-------------------------------------------------------------------------------
    1 =    1.20759      2 =    1.20759      3 =    1.20771
-------------------------------------------------------------------------------


  Time to end of optimisation =       0.0531 seconds


  Peak dynamic memory used =       0.59 MB 


  Timing analysis for GULP :

--------------------------------------------------------------------------------
  Task / Subroutine                                          Time (Seconds)
--------------------------------------------------------------------------------
  Calculation of reciprocal space energy and derivatives          0.0009
  Calculation of reciprocal space energy using symmetry           0.0044
  Calculation of real space energy and derivatives                0.0037
  Calculation of real space energy using symmetry                 0.0401
  Symmetry generation of equivalent positions                     0.0005
--------------------------------------------------------------------------------
  Total CPU time                                                  0.0531
--------------------------------------------------------------------------------


  CIF file written as perov.cif                                               


  Job Finished at 12:49.36 22nd February   2017                               

