********************************************************************************
*                       GENERAL UTILITY LATTICE PROGRAM                        *
*                                 Julian Gale                                  *
*                      Nanochemistry Research Institute                        *
*                           Department of Chemistry                            *
*                    Curtin University, Western Australia                      *
********************************************************************************
* Version = 4.3.2 * Last modified =  3rd March 2015                            *
********************************************************************************
*  optimise     - perform optimisation run                                     *
*  conp         - constant pressure calculation                                *
*  property     - calculate properties for final geometry                      *
********************************************************************************

  Job Started  at 12:49.33 22nd February   2017                               

  Number of CPUs =     1


  Total number of configurations input =   1

********************************************************************************
*  Input for Configuration =   1                                               *
********************************************************************************

  Formula = K2Zn2F6                                                     

  Number of irreducible atoms/shells =       6


  Total number atoms/shells =      16

  Dimensionality = 3               :  Bulk   


  Symmetry :

  Crystal family                   :  Tetragonal  
  Crystal class  (Groth - 1921)    :  Ditetragonal Dipyramidal             

  Space group (centrosymmetric)    :  P 4/M B M       

  Patterson group                  :  P 4/m m m

  Cartesian lattice vectors (Angstroms) :

        4.200000    0.000000    0.000000
        0.000000    4.200000    0.000000
        0.000000    0.000000    4.200000

  Cell parameters (Angstroms/Degrees):

  a =       4.2000    alpha =  90.0000
  b =       4.2000    beta  =  90.0000
  c =       4.2000    gamma =  90.0000

  Initial cell volume =          74.088000 Angs**3

  Temperature of configuration =  0.000     K 

  Pressure of configuration =         0.000 GPa 

  Fractional coordinates of asymmetric unit :

--------------------------------------------------------------------------------
   No.  Atomic       x           y          z         Charge      Occupancy
        Label      (Frac)      (Frac)     (Frac)        (e)         (Frac)  
--------------------------------------------------------------------------------
      1 K     c    0.000000    0.000000    0.000000     0.70000    1.000000    
      2 Zn    c    0.000000    0.500000    0.000000     2.40000    1.000000    
      3 F     c    0.000000    0.500000    0.500000     0.37800    1.000000    
      4 F     c    0.227100 *  0.727100    0.000000     0.37800    1.000000    
      5 F     s    0.000000    0.500000    0.500000    -1.41133    1.000000    
      6 F     s    0.227100 *  0.727100    0.000000    -1.41133    1.000000    
--------------------------------------------------------------------------------


  Constraints : 

--------------------------------------------------------------------------------
  Constraint no.      Unconstrained     Constrained    Coefficient    Offset
                         Variable         Variable
--------------------------------------------------------------------------------
           1              Strain 1        Strain 2       1.00000      0.0000
           2                 4 x             4 y         1.00000      0.5000
           3                 6 x             6 y         1.00000      0.5000
--------------------------------------------------------------------------------


********************************************************************************
*  General input information                                                   *
********************************************************************************

  Species output for all configurations : 

--------------------------------------------------------------------------------
  Species    Type    Atomic    Atomic    Charge       Radii (Angs)     Library
                     Number     Mass       (e)     Cova   Ionic  VDW   Symbol
--------------------------------------------------------------------------------
    K        Core       19      39.10   0.700000   1.330  0.000  2.800          
    Zn       Core       30      65.39   2.400000   1.450  0.000  2.160          
    F        Core        9      19.00   0.378000   0.710  0.000  1.300          
    F        Shell       9       0.00  -1.411333   0.710  0.000  1.300          
--------------------------------------------------------------------------------


  Lattice summation method               =    Ewald          (3-D)
                                         =    Parry          (2-D)
                                         =    Saunders et al (1-D)
  Accuracy factor for lattice sums       =   12.000


  Time limit = Infinity

  Maximum range for interatomic potentials =    100000.000000 Angstroms

  General interatomic potentials :

--------------------------------------------------------------------------------
Atom  Types   Potential         A         B         C         D     Cutoffs(Ang)
  1     2                                                            Min    Max 
--------------------------------------------------------------------------------
K    c K    c Buckingham    0.219E+04 0.192      0.00      0.00     0.000 10.000
Zn   c F    s Buckingham    0.148E+04 0.266      0.00      0.00     0.000 10.000
F    s F    s Buckingham     912.     0.271      13.8      0.00     0.000 10.000
K    c F    s Buckingham    0.352E+04 0.267      0.00      0.00     0.000 10.000
F    c F    s Spring (c-s)   25.5      0.00      0.00      0.00     0.000  0.800
--------------------------------------------------------------------------------

********************************************************************************
*  Output for configuration   1                                                *
********************************************************************************


  Components of energy : 

--------------------------------------------------------------------------------
  Interatomic potentials     =         162.45946484 eV
  Monopole - monopole (real) =         -52.61109505 eV
  Monopole - monopole (recip)=         -78.93024625 eV
  Monopole - monopole (total)=        -131.54134131 eV
--------------------------------------------------------------------------------
  Total lattice energy       =          30.91812354 eV
--------------------------------------------------------------------------------
  Total lattice energy       =            2983.1263 kJ/(mole unit cells)
--------------------------------------------------------------------------------


  Number of variables =        4

  Maximum number of calculations  =          1000
  Maximum Hessian update interval =            10
  Maximum step size               =   1.000000000
  Maximum parameter tolerance     =   0.000010000
  Maximum function  tolerance     =   0.000010000
  Maximum gradient  tolerance     =   0.001000000
  Maximum gradient  component     =   0.010000000

  Symmetry constrained optimisation

  Symmetry used for second derivatives

  Cell parameters to be optimised using strains

  Newton-Raphson optimiser to be used

  BFGS hessian update to be used

  Start of bulk optimisation :

  Cycle:      0 Energy:        30.918124  Gnorm:    201.489517  CPU:    0.005
  ** Hessian calculated **
  Cycle:      1 Energy:       -85.433339  Gnorm:     34.574944  CPU:    0.013
  ** Hessian calculated **
  Cycle:      2 Energy:       -87.586155  Gnorm:     52.292865  CPU:    0.018
  ** Hessian calculated **
  Cycle:      3 Energy:       -89.507861  Gnorm:     14.250796  CPU:    0.024
  Cycle:      4 Energy:       -89.801939  Gnorm:      1.339220  CPU:    0.027
  Cycle:      5 Energy:       -89.808187  Gnorm:      1.379791  CPU:    0.030
  Cycle:      6 Energy:       -89.809528  Gnorm:      0.158695  CPU:    0.034
  Cycle:      7 Energy:       -89.809556  Gnorm:      0.029110  CPU:    0.037
  Cycle:      8 Energy:       -89.809563  Gnorm:      0.024199  CPU:    0.040
  Cycle:      9 Energy:       -89.809564  Gnorm:      0.020621  CPU:    0.043
  Cycle:     10 Energy:       -89.809564  Gnorm:      0.004007  CPU:    0.046
  Cycle:     11 Energy:       -89.809564  Gnorm:      0.002982  CPU:    0.049
  Cycle:     12 Energy:       -89.809564  Gnorm:      0.002669  CPU:    0.053
  ** Hessian calculated **


  **** Optimisation achieved ****


  Final energy =     -89.80956450 eV
  Final Gnorm  =       0.00003039

  Components of energy : 

--------------------------------------------------------------------------------
  Interatomic potentials     =          14.57141553 eV
  Monopole - monopole (real) =         -31.04088633 eV
  Monopole - monopole (recip)=         -73.34009370 eV
  Monopole - monopole (total)=        -104.38098003 eV
--------------------------------------------------------------------------------
  Total lattice energy       =         -89.80956450 eV
--------------------------------------------------------------------------------
  Total lattice energy       =           -8665.2501 kJ/(mole unit cells)
--------------------------------------------------------------------------------

  Final asymmetric unit coordinates :

--------------------------------------------------------------------------------
   No.  Atomic        x           y           z         Radius
        Label       (Frac)      (Frac)      (Frac)       (Angs) 
--------------------------------------------------------------------------------
     1  K     c     0.000000    0.000000    0.000000    0.000000
     2  Zn    c     0.000000    0.500000    0.000000    0.000000
     3  F     c     0.000000    0.500000    0.500000    0.000000
     4  F     c     0.313210    0.813210    0.000000    0.000000
     5  F     s     0.000000    0.500000    0.500000    0.000000
     6  F     s     0.320758    0.820758    0.000000    0.000000
--------------------------------------------------------------------------------

  Final Cartesian lattice vectors (Angstroms) :

        7.079612    0.000000    0.000000
        0.000000    7.079612    0.000000
        0.000000    0.000000    3.718272


  Final cell parameters and derivatives :

--------------------------------------------------------------------------------
       a            7.079612 Angstrom     dE/de1(xx)     0.000046 eV/strain
       b            7.079612 Angstrom     dE/de2(yy)     0.000000 eV/strain
       c            3.718272 Angstrom     dE/de3(zz)    -0.000063 eV/strain
       alpha       90.000000 Degrees      dE/de4(yz)     0.000000 eV/strain
       beta        90.000000 Degrees      dE/de5(xz)     0.000000 eV/strain
       gamma       90.000000 Degrees      dE/de6(xy)     0.000000 eV/strain
--------------------------------------------------------------------------------

  Primitive cell volume =           186.363149 Angs**3

  Density of cell =      2.877873 g/cm**3

  Non-primitive cell volume =           186.363149 Angs**3


  Final internal derivatives :

--------------------------------------------------------------------------------
   No.  Atomic          a             b             c           Radius
        Label          (eV)          (eV)          (eV)        (eV/Angs)
--------------------------------------------------------------------------------
      1 K     c       0.000000      0.000000      0.000000      0.000000
      2 Zn    c       0.000000      0.000000      0.000000      0.000000
      3 F     c       0.000000      0.000000      0.000000      0.000000
      4 F     c      -0.000042      0.000000      0.000000      0.000000
      5 F     s       0.000000      0.000000      0.000000      0.000000
      6 F     s      -0.000083      0.000000      0.000000      0.000000
--------------------------------------------------------------------------------
  Maximum abs         0.000083      0.000000      0.000000      0.000000
--------------------------------------------------------------------------------


  Born effective charge tensors : 

-------------------------------------------------------------------------------
  Atom             x           y             z
-------------------------------------------------------------------------------
   1 K     x       0.6166     -0.0013      0.0000
           y       0.0013      0.6166      0.0000
           z       0.0000      0.0000      0.7027
-------------------------------------------------------------------------------
   2 Zn    x       1.6809      0.3572      0.0000
           y       0.3572      1.6809      0.0000
           z       0.0000      0.0000      1.8123
-------------------------------------------------------------------------------
   3 F     x      -0.7607     -0.0115      0.0000
           y      -0.0115     -0.7607      0.0000
           z       0.0000      0.0000     -0.7288
-------------------------------------------------------------------------------
   4 F     x      -0.7684     -0.0206      0.0000
           y      -0.0206     -0.7684      0.0000
           z       0.0000      0.0000     -0.8931
-------------------------------------------------------------------------------




  Elastic Constant Matrix: (Units=GPa)

-------------------------------------------------------------------------------
  Indices      1         2         3         4         5         6    
-------------------------------------------------------------------------------
       1     58.0355    4.9856   -2.7609    0.0000    0.0000    0.0000
       2      4.9856   58.0355   -2.7609    0.0000    0.0000    0.0000
       3     -2.7609   -2.7609  152.8180    0.0000    0.0000    0.0000
       4      0.0000    0.0000    0.0000    0.6344    0.0000    0.0000
       5      0.0000    0.0000    0.0000    0.0000    0.6344    0.0000
       6      0.0000    0.0000    0.0000    0.0000    0.0000    1.6498
-------------------------------------------------------------------------------


  Elastic Compliance Matrix: (Units=1/GPa)

-------------------------------------------------------------------------------
  Indices      1         2         3         4         5         6    
-------------------------------------------------------------------------------
       1    0.017372 -0.001479  0.000287  0.000000  0.000000  0.000000
       2   -0.001479  0.017372  0.000287  0.000000  0.000000  0.000000
       3    0.000287  0.000287  0.006554  0.000000  0.000000  0.000000
       4    0.000000  0.000000  0.000000  1.576328  0.000000  0.000000
       5    0.000000  0.000000  0.000000  0.000000  1.576328  0.000000
       6    0.000000  0.000000  0.000000  0.000000  0.000000  0.606150
-------------------------------------------------------------------------------

  Mechanical properties :

-------------------------------------------------------------------------------
  Convention :                    Reuss         Voigt         Hill
-------------------------------------------------------------------------------
  Bulk  Modulus (GPa)     =      25.32394      29.75741      27.54067
  Shear Modulus (GPa)     =       1.31059      18.54539       9.92799
-------------------------------------------------------------------------------
  Velocity S-wave (km/s)  =       0.67484       2.53853       1.85735
  Velocity P-wave (km/s)  =       3.06704       4.35112       3.76424
-------------------------------------------------------------------------------
  Compressibility (1/GPa) =    0.03948833
-------------------------------------------------------------------------------
  Stress axis :                     x             y             z
-------------------------------------------------------------------------------
  Youngs Moduli (GPa)     =      57.56550      57.56550     152.57612
-------------------------------------------------------------------------------
  Poissons Ratio (x)      =                     0.08512      -0.04381
  Poissons Ratio (y)      =       0.08512                    -0.04381
  Poissons Ratio (z)      =      -0.01653      -0.01653
-------------------------------------------------------------------------------


  Piezoelectric Strain Matrix: (Units=C/m**2)

-------------------------------------------------------------------------------
  Indices      1         2         3         4         5         6    
-------------------------------------------------------------------------------
       x     0.00000   0.00000   0.00000   0.00000   0.00000   0.00000
       y     0.00000   0.00000   0.00000   0.00000   0.00000   0.00000
       z     0.00000   0.00000   0.00000   0.00000   0.00000   0.00000
-------------------------------------------------------------------------------


  Piezoelectric Stress Matrix: (Units=10**-11 C/N)

-------------------------------------------------------------------------------
  Indices      1         2         3         4         5         6    
-------------------------------------------------------------------------------
       x     0.00000   0.00000   0.00000   0.00000   0.00000   0.00000
       y     0.00000   0.00000   0.00000   0.00000   0.00000   0.00000
       z     0.00000   0.00000   0.00000   0.00000   0.00000   0.00000
-------------------------------------------------------------------------------


  Static dielectric constant tensor : 

-------------------------------------------------------------------------------
              x         y         z
-------------------------------------------------------------------------------
       x   -22.69931   0.00000   0.00000
       y     0.00000 -22.69931   0.00000
       z     0.00000   0.00000   1.57706
--------------------------------------------------------------------------------

  High frequency dielectric constant tensor : 

-------------------------------------------------------------------------------
              x         y         z
-------------------------------------------------------------------------------
       x     1.38031   0.00000   0.00000
       y     0.00000   1.38031   0.00000
       z     0.00000   0.00000   1.41714
-------------------------------------------------------------------------------

  Static refractive indices : 

-------------------------------------------------------------------------------
    1 =   -4.76438      2 =   -4.76438      3 =    1.25581
-------------------------------------------------------------------------------

  High frequency refractive indices : 

-------------------------------------------------------------------------------
    1 =    1.17486      2 =    1.17486      3 =    1.19044
-------------------------------------------------------------------------------


  Time to end of optimisation =       0.0644 seconds


  Peak dynamic memory used =       0.59 MB 


  Timing analysis for GULP :

--------------------------------------------------------------------------------
  Task / Subroutine                                          Time (Seconds)
--------------------------------------------------------------------------------
  Calculation of reciprocal space energy and derivatives          0.0010
  Calculation of reciprocal space energy using symmetry           0.0056
  Calculation of real space energy and derivatives                0.0040
  Calculation of real space energy using symmetry                 0.0495
  Symmetry generation of equivalent positions                     0.0005
--------------------------------------------------------------------------------
  Total CPU time                                                  0.0644
--------------------------------------------------------------------------------


  CIF file written as perov.cif                                               


  Job Finished at 12:49.33 22nd February   2017                               

