********************************************************************************
*                       GENERAL UTILITY LATTICE PROGRAM                        *
*                                 Julian Gale                                  *
*                      Nanochemistry Research Institute                        *
*                           Department of Chemistry                            *
*                    Curtin University, Western Australia                      *
********************************************************************************
* Version = 4.3.2 * Last modified =  3rd March 2015                            *
********************************************************************************
*  optimise     - perform optimisation run                                     *
*  conp         - constant pressure calculation                                *
*  property     - calculate properties for final geometry                      *
********************************************************************************

  Job Started  at 12:49.33 22nd February   2017                               

  Number of CPUs =     1


  Total number of configurations input =   1

********************************************************************************
*  Input for Configuration =   1                                               *
********************************************************************************

  Formula = K2Zn2F6                                                     

  Number of irreducible atoms/shells =       6


  Total number atoms/shells =      16

  Dimensionality = 3               :  Bulk   


  Symmetry :

  Crystal family                   :  Tetragonal  
  Crystal class  (Groth - 1921)    :  Ditetragonal Dipyramidal             

  Space group (centrosymmetric)    :  P 4/M B M       

  Patterson group                  :  P 4/m m m

  Cartesian lattice vectors (Angstroms) :

        4.200000    0.000000    0.000000
        0.000000    4.200000    0.000000
        0.000000    0.000000    4.200000

  Cell parameters (Angstroms/Degrees):

  a =       4.2000    alpha =  90.0000
  b =       4.2000    beta  =  90.0000
  c =       4.2000    gamma =  90.0000

  Initial cell volume =          74.088000 Angs**3

  Temperature of configuration =  0.000     K 

  Pressure of configuration =         0.000 GPa 

  Fractional coordinates of asymmetric unit :

--------------------------------------------------------------------------------
   No.  Atomic       x           y          z         Charge      Occupancy
        Label      (Frac)      (Frac)     (Frac)        (e)         (Frac)  
--------------------------------------------------------------------------------
      1 K     c    0.000000    0.000000    0.000000     0.70000    1.000000    
      2 Zn    c    0.000000    0.500000    0.000000     1.90000    1.000000    
      3 F     c    0.000000    0.500000    0.500000     0.37800    1.000000    
      4 F     c    0.227100 *  0.727100    0.000000     0.37800    1.000000    
      5 F     s    0.000000    0.500000    0.500000    -1.24467    1.000000    
      6 F     s    0.227100 *  0.727100    0.000000    -1.24467    1.000000    
--------------------------------------------------------------------------------


  Constraints : 

--------------------------------------------------------------------------------
  Constraint no.      Unconstrained     Constrained    Coefficient    Offset
                         Variable         Variable
--------------------------------------------------------------------------------
           1              Strain 1        Strain 2       1.00000      0.0000
           2                 4 x             4 y         1.00000      0.5000
           3                 6 x             6 y         1.00000      0.5000
--------------------------------------------------------------------------------


********************************************************************************
*  General input information                                                   *
********************************************************************************

  Species output for all configurations : 

--------------------------------------------------------------------------------
  Species    Type    Atomic    Atomic    Charge       Radii (Angs)     Library
                     Number     Mass       (e)     Cova   Ionic  VDW   Symbol
--------------------------------------------------------------------------------
    K        Core       19      39.10   0.700000   1.330  0.000  2.800          
    Zn       Core       30      65.39   1.900000   1.450  0.000  2.160          
    F        Core        9      19.00   0.378000   0.710  0.000  1.300          
    F        Shell       9       0.00  -1.244667   0.710  0.000  1.300          
--------------------------------------------------------------------------------


  Lattice summation method               =    Ewald          (3-D)
                                         =    Parry          (2-D)
                                         =    Saunders et al (1-D)
  Accuracy factor for lattice sums       =   12.000


  Time limit = Infinity

  Maximum range for interatomic potentials =    100000.000000 Angstroms

  General interatomic potentials :

--------------------------------------------------------------------------------
Atom  Types   Potential         A         B         C         D     Cutoffs(Ang)
  1     2                                                            Min    Max 
--------------------------------------------------------------------------------
K    c K    c Buckingham    0.219E+04 0.192      0.00      0.00     0.000 10.000
Zn   c F    s Buckingham    0.148E+04 0.266      0.00      0.00     0.000 10.000
F    s F    s Buckingham     912.     0.271      13.8      0.00     0.000 10.000
K    c F    s Buckingham    0.352E+04 0.267      0.00      0.00     0.000 10.000
F    c F    s Spring (c-s)   19.9      0.00      0.00      0.00     0.000  0.800
--------------------------------------------------------------------------------

********************************************************************************
*  Output for configuration   1                                                *
********************************************************************************


  Components of energy : 

--------------------------------------------------------------------------------
  Interatomic potentials     =         162.45946484 eV
  Monopole - monopole (real) =         -35.99002820 eV
  Monopole - monopole (recip)=         -52.99132139 eV
  Monopole - monopole (total)=         -88.98134959 eV
--------------------------------------------------------------------------------
  Total lattice energy       =          73.47811526 eV
--------------------------------------------------------------------------------
  Total lattice energy       =            7089.5149 kJ/(mole unit cells)
--------------------------------------------------------------------------------


  Number of variables =        4

  Maximum number of calculations  =          1000
  Maximum Hessian update interval =            10
  Maximum step size               =   1.000000000
  Maximum parameter tolerance     =   0.000010000
  Maximum function  tolerance     =   0.000010000
  Maximum gradient  tolerance     =   0.001000000
  Maximum gradient  component     =   0.010000000

  Symmetry constrained optimisation

  Symmetry used for second derivatives

  Cell parameters to be optimised using strains

  Newton-Raphson optimiser to be used

  BFGS hessian update to be used

  Start of bulk optimisation :

  Cycle:      0 Energy:        73.478115  Gnorm:    212.086440  CPU:    0.005
  ** Hessian calculated **
  Cycle:      1 Energy:       -55.108773  Gnorm:     30.473663  CPU:    0.012
  ** Hessian calculated **
  Cycle:      2 Energy:       -56.240338  Gnorm:      8.860720  CPU:    0.018
  ** Hessian calculated **
  Cycle:      3 Energy:       -56.534192  Gnorm:     10.196996  CPU:    0.024
  ** Hessian calculated **
  Cycle:      4 Energy:       -56.737275  Gnorm:     11.466608  CPU:    0.030
  Cycle:      5 Energy:       -56.844788  Gnorm:      3.651405  CPU:    0.034
  Cycle:      6 Energy:       -56.888746  Gnorm:      4.445248  CPU:    0.037
  Cycle:      7 Energy:       -56.908311  Gnorm:      0.760386  CPU:    0.041
  Cycle:      8 Energy:       -56.911235  Gnorm:      0.262221  CPU:    0.045
  Cycle:      9 Energy:       -56.911453  Gnorm:      0.066115  CPU:    0.048
  Cycle:     10 Energy:       -56.911482  Gnorm:      0.075630  CPU:    0.051
  Cycle:     11 Energy:       -56.911495  Gnorm:      0.028587  CPU:    0.054
  Cycle:     12 Energy:       -56.911497  Gnorm:      0.007389  CPU:    0.058
  Cycle:     13 Energy:       -56.911497  Gnorm:      0.007463  CPU:    0.061
  ** Hessian calculated **


  **** Optimisation achieved ****


  Final energy =     -56.91149726 eV
  Final Gnorm  =       0.00027467

  Components of energy : 

--------------------------------------------------------------------------------
  Interatomic potentials     =           8.16570966 eV
  Monopole - monopole (real) =         -15.07740479 eV
  Monopole - monopole (recip)=         -49.99980214 eV
  Monopole - monopole (total)=         -65.07720693 eV
--------------------------------------------------------------------------------
  Total lattice energy       =         -56.91149726 eV
--------------------------------------------------------------------------------
  Total lattice energy       =           -5491.0895 kJ/(mole unit cells)
--------------------------------------------------------------------------------

  Final asymmetric unit coordinates :

--------------------------------------------------------------------------------
   No.  Atomic        x           y           z         Radius
        Label       (Frac)      (Frac)      (Frac)       (Angs) 
--------------------------------------------------------------------------------
     1  K     c     0.000000    0.000000    0.000000    0.000000
     2  Zn    c     0.000000    0.500000    0.000000    0.000000
     3  F     c     0.000000    0.500000    0.500000    0.000000
     4  F     c     0.198930    0.698930    0.000000    0.000000
     5  F     s     0.000000    0.500000    0.500000    0.000000
     6  F     s     0.193579    0.693579    0.000000    0.000000
--------------------------------------------------------------------------------

  Final Cartesian lattice vectors (Angstroms) :

        7.267969    0.000000    0.000000
        0.000000    7.267969    0.000000
        0.000000    0.000000    3.998247


  Final cell parameters and derivatives :

--------------------------------------------------------------------------------
       a            7.267969 Angstrom     dE/de1(xx)     0.000567 eV/strain
       b            7.267969 Angstrom     dE/de2(yy)     0.000000 eV/strain
       c            3.998247 Angstrom     dE/de3(zz)    -0.000003 eV/strain
       alpha       90.000000 Degrees      dE/de4(yz)     0.000000 eV/strain
       beta        90.000000 Degrees      dE/de5(xz)     0.000000 eV/strain
       gamma       90.000000 Degrees      dE/de6(xy)     0.000000 eV/strain
--------------------------------------------------------------------------------

  Primitive cell volume =           211.200915 Angs**3

  Density of cell =      2.539428 g/cm**3

  Non-primitive cell volume =           211.200915 Angs**3


  Final internal derivatives :

--------------------------------------------------------------------------------
   No.  Atomic          a             b             c           Radius
        Label          (eV)          (eV)          (eV)        (eV/Angs)
--------------------------------------------------------------------------------
      1 K     c       0.000000      0.000000      0.000000      0.000000
      2 Zn    c       0.000000      0.000000      0.000000      0.000000
      3 F     c       0.000000      0.000000      0.000000      0.000000
      4 F     c       0.000809      0.000000      0.000000      0.000000
      5 F     s       0.000000      0.000000      0.000000      0.000000
      6 F     s      -0.000481      0.000000      0.000000      0.000000
--------------------------------------------------------------------------------
  Maximum abs         0.000809      0.000000      0.000000      0.000000
--------------------------------------------------------------------------------


  Born effective charge tensors : 

-------------------------------------------------------------------------------
  Atom             x           y             z
-------------------------------------------------------------------------------
   1 K     x       0.6003     -0.0004      0.0000
           y       0.0004      0.6003      0.0000
           z       0.0000      0.0000      0.6979
-------------------------------------------------------------------------------
   2 Zn    x       1.5131     -0.2305      0.0000
           y      -0.2305      1.5131      0.0000
           z       0.0000      0.0000      1.4332
-------------------------------------------------------------------------------
   3 F     x      -0.7015      0.0085      0.0000
           y       0.0085     -0.7015      0.0000
           z       0.0000      0.0000     -0.6148
-------------------------------------------------------------------------------
   4 F     x      -0.7059     -0.0732      0.0000
           y      -0.0732     -0.7059      0.0000
           z       0.0000      0.0000     -0.7581
-------------------------------------------------------------------------------




  Elastic Constant Matrix: (Units=GPa)

-------------------------------------------------------------------------------
  Indices      1         2         3         4         5         6    
-------------------------------------------------------------------------------
       1     42.3609    6.7799   -1.7280    0.0000    0.0000    0.0000
       2      6.7799   42.3609   -1.7280    0.0000    0.0000    0.0000
       3     -1.7280   -1.7280   95.2312    0.0000    0.0000    0.0000
       4      0.0000    0.0000    0.0000    1.0971    0.0000    0.0000
       5      0.0000    0.0000    0.0000    0.0000    1.0971    0.0000
       6      0.0000    0.0000    0.0000    0.0000    0.0000    4.1344
-------------------------------------------------------------------------------


  Elastic Compliance Matrix: (Units=1/GPa)

-------------------------------------------------------------------------------
  Indices      1         2         3         4         5         6    
-------------------------------------------------------------------------------
       1    0.024240 -0.003865  0.000370  0.000000  0.000000  0.000000
       2   -0.003865  0.024240  0.000370  0.000000  0.000000  0.000000
       3    0.000370  0.000370  0.010514  0.000000  0.000000  0.000000
       4    0.000000  0.000000  0.000000  0.911484  0.000000  0.000000
       5    0.000000  0.000000  0.000000  0.000000  0.911484  0.000000
       6    0.000000  0.000000  0.000000  0.000000  0.000000  0.241874
-------------------------------------------------------------------------------

  Mechanical properties :

-------------------------------------------------------------------------------
  Convention :                    Reuss         Voigt         Hill
-------------------------------------------------------------------------------
  Bulk  Modulus (GPa)     =      18.95936      20.73344      19.84640
  Shear Modulus (GPa)     =       2.32811      13.04099       7.68455
-------------------------------------------------------------------------------
  Velocity S-wave (km/s)  =       0.95749       2.26614       1.73957
  Velocity P-wave (km/s)  =       2.94761       3.87451       3.44240
-------------------------------------------------------------------------------
  Compressibility (1/GPa) =    0.05274439
-------------------------------------------------------------------------------
  Stress axis :                     x             y             z
-------------------------------------------------------------------------------
  Youngs Moduli (GPa)     =      41.25363      41.25363      95.10967
-------------------------------------------------------------------------------
  Poissons Ratio (x)      =                     0.15943      -0.03516
  Poissons Ratio (y)      =       0.15943                    -0.03516
  Poissons Ratio (z)      =      -0.01525      -0.01525
-------------------------------------------------------------------------------


  Piezoelectric Strain Matrix: (Units=C/m**2)

-------------------------------------------------------------------------------
  Indices      1         2         3         4         5         6    
-------------------------------------------------------------------------------
       x     0.00000   0.00000   0.00000   0.00000   0.00000   0.00000
       y     0.00000   0.00000   0.00000   0.00000   0.00000   0.00000
       z     0.00000   0.00000   0.00000   0.00000   0.00000   0.00000
-------------------------------------------------------------------------------


  Piezoelectric Stress Matrix: (Units=10**-11 C/N)

-------------------------------------------------------------------------------
  Indices      1         2         3         4         5         6    
-------------------------------------------------------------------------------
       x     0.00000   0.00000   0.00000   0.00000   0.00000   0.00000
       y     0.00000   0.00000   0.00000   0.00000   0.00000   0.00000
       z     0.00000   0.00000   0.00000   0.00000   0.00000   0.00000
-------------------------------------------------------------------------------


  Static dielectric constant tensor : 

-------------------------------------------------------------------------------
              x         y         z
-------------------------------------------------------------------------------
       x     3.45299   0.00000   0.00000
       y     0.00000   3.45299   0.00000
       z     0.00000   0.00000   1.43696
--------------------------------------------------------------------------------

  High frequency dielectric constant tensor : 

-------------------------------------------------------------------------------
              x         y         z
-------------------------------------------------------------------------------
       x     1.36170   0.00000   0.00000
       y     0.00000   1.36170   0.00000
       z     0.00000   0.00000   1.37072
-------------------------------------------------------------------------------

  Static refractive indices : 

-------------------------------------------------------------------------------
    1 =    1.19873      2 =    1.85822      3 =    1.85822
-------------------------------------------------------------------------------

  High frequency refractive indices : 

-------------------------------------------------------------------------------
    1 =    1.16692      2 =    1.16692      3 =    1.17078
-------------------------------------------------------------------------------


  Time to end of optimisation =       0.0709 seconds


  Peak dynamic memory used =       0.59 MB 


  Timing analysis for GULP :

--------------------------------------------------------------------------------
  Task / Subroutine                                          Time (Seconds)
--------------------------------------------------------------------------------
  Calculation of reciprocal space energy and derivatives          0.0011
  Calculation of reciprocal space energy using symmetry           0.0066
  Calculation of real space energy and derivatives                0.0036
  Calculation of real space energy using symmetry                 0.0554
  Symmetry generation of equivalent positions                     0.0005
--------------------------------------------------------------------------------
  Total CPU time                                                  0.0710
--------------------------------------------------------------------------------


  CIF file written as perov.cif                                               


  Job Finished at 12:49.33 22nd February   2017                               

