********************************************************************************
*                       GENERAL UTILITY LATTICE PROGRAM                        *
*                                 Julian Gale                                  *
*                      Nanochemistry Research Institute                        *
*                           Department of Chemistry                            *
*                    Curtin University, Western Australia                      *
********************************************************************************
* Version = 4.3.2 * Last modified =  3rd March 2015                            *
********************************************************************************
*  optimise     - perform optimisation run                                     *
*  conp         - constant pressure calculation                                *
*  property     - calculate properties for final geometry                      *
********************************************************************************

  Job Started  at 12:49.35 22nd February   2017                               

  Number of CPUs =     1


  Total number of configurations input =   1

********************************************************************************
*  Input for Configuration =   1                                               *
********************************************************************************

  Formula = K2Zn2F6                                                     

  Number of irreducible atoms/shells =       6


  Total number atoms/shells =      16

  Dimensionality = 3               :  Bulk   


  Symmetry :

  Crystal family                   :  Tetragonal  
  Crystal class  (Groth - 1921)    :  Ditetragonal Dipyramidal             

  Space group (centrosymmetric)    :  P 4/M B M       

  Patterson group                  :  P 4/m m m

  Cartesian lattice vectors (Angstroms) :

        4.200000    0.000000    0.000000
        0.000000    4.200000    0.000000
        0.000000    0.000000    4.200000

  Cell parameters (Angstroms/Degrees):

  a =       4.2000    alpha =  90.0000
  b =       4.2000    beta  =  90.0000
  c =       4.2000    gamma =  90.0000

  Initial cell volume =          74.088000 Angs**3

  Temperature of configuration =  0.000     K 

  Pressure of configuration =         0.000 GPa 

  Fractional coordinates of asymmetric unit :

--------------------------------------------------------------------------------
   No.  Atomic       x           y          z         Charge      Occupancy
        Label      (Frac)      (Frac)     (Frac)        (e)         (Frac)  
--------------------------------------------------------------------------------
      1 K     c    0.000000    0.000000    0.000000     1.00000    1.000000    
      2 Zn    c    0.000000    0.500000    0.000000     2.00000    1.000000    
      3 F     c    0.000000    0.500000    0.500000     0.37800    1.000000    
      4 F     c    0.227100 *  0.727100    0.000000     0.37800    1.000000    
      5 F     s    0.000000    0.500000    0.500000    -1.37800    1.000000    
      6 F     s    0.227100 *  0.727100    0.000000    -1.37800    1.000000    
--------------------------------------------------------------------------------


  Constraints : 

--------------------------------------------------------------------------------
  Constraint no.      Unconstrained     Constrained    Coefficient    Offset
                         Variable         Variable
--------------------------------------------------------------------------------
           1              Strain 1        Strain 2       1.00000      0.0000
           2                 4 x             4 y         1.00000      0.5000
           3                 6 x             6 y         1.00000      0.5000
--------------------------------------------------------------------------------


********************************************************************************
*  General input information                                                   *
********************************************************************************

  Species output for all configurations : 

--------------------------------------------------------------------------------
  Species    Type    Atomic    Atomic    Charge       Radii (Angs)     Library
                     Number     Mass       (e)     Cova   Ionic  VDW   Symbol
--------------------------------------------------------------------------------
    K        Core       19      39.10   1.000000   1.330  0.000  2.800          
    Zn       Core       30      65.39   2.000000   1.450  0.000  2.160          
    F        Core        9      19.00   0.378000   0.710  0.000  1.300          
    F        Shell       9       0.00  -1.378000   0.710  0.000  1.300          
--------------------------------------------------------------------------------


  Lattice summation method               =    Ewald          (3-D)
                                         =    Parry          (2-D)
                                         =    Saunders et al (1-D)
  Accuracy factor for lattice sums       =   12.000


  Time limit = Infinity

  Maximum range for interatomic potentials =    100000.000000 Angstroms

  General interatomic potentials :

--------------------------------------------------------------------------------
Atom  Types   Potential         A         B         C         D     Cutoffs(Ang)
  1     2                                                            Min    Max 
--------------------------------------------------------------------------------
K    c K    c Buckingham    0.219E+04 0.192      0.00      0.00     0.000 10.000
Zn   c F    s Buckingham    0.148E+04 0.266      0.00      0.00     0.000 10.000
F    s F    s Buckingham     912.     0.271      13.8      0.00     0.000 10.000
K    c F    s Buckingham    0.352E+04 0.267      0.00      0.00     0.000 10.000
F    c F    s Spring (c-s)   24.3      0.00      0.00      0.00     0.000  0.800
--------------------------------------------------------------------------------

********************************************************************************
*  Output for configuration   1                                                *
********************************************************************************


  Components of energy : 

--------------------------------------------------------------------------------
  Interatomic potentials     =         162.45946484 eV
  Monopole - monopole (real) =         -46.23992858 eV
  Monopole - monopole (recip)=         -66.62387871 eV
  Monopole - monopole (total)=        -112.86380729 eV
--------------------------------------------------------------------------------
  Total lattice energy       =          49.59565755 eV
--------------------------------------------------------------------------------
  Total lattice energy       =            4785.2228 kJ/(mole unit cells)
--------------------------------------------------------------------------------


  Number of variables =        4

  Maximum number of calculations  =          1000
  Maximum Hessian update interval =            10
  Maximum step size               =   1.000000000
  Maximum parameter tolerance     =   0.000010000
  Maximum function  tolerance     =   0.000010000
  Maximum gradient  tolerance     =   0.001000000
  Maximum gradient  component     =   0.010000000

  Symmetry constrained optimisation

  Symmetry used for second derivatives

  Cell parameters to be optimised using strains

  Newton-Raphson optimiser to be used

  BFGS hessian update to be used

  Start of bulk optimisation :

  Cycle:      0 Energy:        49.595658  Gnorm:    206.939785  CPU:    0.005
  ** Hessian calculated **
  Cycle:      1 Energy:       -72.292333  Gnorm:     29.834475  CPU:    0.012
  ** Hessian calculated **
  Cycle:      2 Energy:       -73.338397  Gnorm:      3.825811  CPU:    0.018
  Cycle:      3 Energy:       -73.369032  Gnorm:      4.976856  CPU:    0.022
  ** Hessian calculated **
  Cycle:      4 Energy:       -73.700813  Gnorm:      1.433838  CPU:    0.028
  Cycle:      5 Energy:       -73.723257  Gnorm:      0.139798  CPU:    0.032
  Cycle:      6 Energy:       -73.723399  Gnorm:      0.015291  CPU:    0.035
  Cycle:      7 Energy:       -73.723403  Gnorm:      0.005505  CPU:    0.038


  **** Optimisation achieved ****


  Final energy =     -73.72340282 eV
  Final Gnorm  =       0.00076208

  Components of energy : 

--------------------------------------------------------------------------------
  Interatomic potentials     =          10.61604947 eV
  Monopole - monopole (real) =         -20.11819146 eV
  Monopole - monopole (recip)=         -64.22126082 eV
  Monopole - monopole (total)=         -84.33945229 eV
--------------------------------------------------------------------------------
  Total lattice energy       =         -73.72340282 eV
--------------------------------------------------------------------------------
  Total lattice energy       =           -7113.1814 kJ/(mole unit cells)
--------------------------------------------------------------------------------

  Final asymmetric unit coordinates :

--------------------------------------------------------------------------------
   No.  Atomic        x           y           z         Radius
        Label       (Frac)      (Frac)      (Frac)       (Angs) 
--------------------------------------------------------------------------------
     1  K     c     0.000000    0.000000    0.000000    0.000000
     2  Zn    c     0.000000    0.500000    0.000000    0.000000
     3  F     c     0.000000    0.500000    0.500000    0.000000
     4  F     c     0.293347    0.793347    0.000000    0.000000
     5  F     s     0.000000    0.500000    0.500000    0.000000
     6  F     s     0.297527    0.797527    0.000000    0.000000
--------------------------------------------------------------------------------

  Final Cartesian lattice vectors (Angstroms) :

        6.878534    0.000000    0.000000
        0.000000    6.878534    0.000000
        0.000000    0.000000    3.861298


  Final cell parameters and derivatives :

--------------------------------------------------------------------------------
       a            6.878534 Angstrom     dE/de1(xx)     0.002135 eV/strain
       b            6.878534 Angstrom     dE/de2(yy)     0.000000 eV/strain
       c            3.861298 Angstrom     dE/de3(zz)     0.000274 eV/strain
       alpha       90.000000 Degrees      dE/de4(yz)     0.000000 eV/strain
       beta        90.000000 Degrees      dE/de5(xz)     0.000000 eV/strain
       gamma       90.000000 Degrees      dE/de6(xy)     0.000000 eV/strain
--------------------------------------------------------------------------------

  Primitive cell volume =           182.694342 Angs**3

  Density of cell =      2.935665 g/cm**3

  Non-primitive cell volume =           182.694342 Angs**3


  Final internal derivatives :

--------------------------------------------------------------------------------
   No.  Atomic          a             b             c           Radius
        Label          (eV)          (eV)          (eV)        (eV/Angs)
--------------------------------------------------------------------------------
      1 K     c       0.000000      0.000000      0.000000      0.000000
      2 Zn    c       0.000000      0.000000      0.000000      0.000000
      3 F     c       0.000000      0.000000      0.000000      0.000000
      4 F     c      -0.001656      0.000000      0.000000      0.000000
      5 F     s       0.000000      0.000000      0.000000      0.000000
      6 F     s      -0.001384      0.000000      0.000000      0.000000
--------------------------------------------------------------------------------
  Maximum abs         0.001656      0.000000      0.000000      0.000000
--------------------------------------------------------------------------------


  Born effective charge tensors : 

-------------------------------------------------------------------------------
  Atom             x           y             z
-------------------------------------------------------------------------------
   1 K     x       0.8489      0.0010      0.0000
           y      -0.0010      0.8489      0.0000
           z       0.0000      0.0000      0.9921
-------------------------------------------------------------------------------
   2 Zn    x       1.6798      0.2205      0.0000
           y       0.2205      1.6798      0.0000
           z       0.0000      0.0000      1.4512
-------------------------------------------------------------------------------
   3 F     x      -0.8420     -0.0103      0.0000
           y      -0.0103     -0.8420      0.0000
           z       0.0000      0.0000     -0.7163
-------------------------------------------------------------------------------
   4 F     x      -0.8433     -0.1418      0.0000
           y      -0.1418     -0.8433      0.0000
           z       0.0000      0.0000     -0.8635
-------------------------------------------------------------------------------




  Elastic Constant Matrix: (Units=GPa)

-------------------------------------------------------------------------------
  Indices      1         2         3         4         5         6    
-------------------------------------------------------------------------------
       1     78.2901   15.4648   -3.0446    0.0000    0.0000    0.0000
       2     15.4648   78.2901   -3.0446    0.0000    0.0000    0.0000
       3     -3.0446   -3.0446  129.9653    0.0000    0.0000    0.0000
       4      0.0000    0.0000    0.0000    2.2025    0.0000    0.0000
       5      0.0000    0.0000    0.0000    0.0000    2.2025    0.0000
       6      0.0000    0.0000    0.0000    0.0000    0.0000   14.0313
-------------------------------------------------------------------------------


  Elastic Compliance Matrix: (Units=1/GPa)

-------------------------------------------------------------------------------
  Indices      1         2         3         4         5         6    
-------------------------------------------------------------------------------
       1    0.013300 -0.002617  0.000250  0.000000  0.000000  0.000000
       2   -0.002617  0.013300  0.000250  0.000000  0.000000  0.000000
       3    0.000250  0.000250  0.007706  0.000000  0.000000  0.000000
       4    0.000000  0.000000  0.000000  0.454034  0.000000  0.000000
       5    0.000000  0.000000  0.000000  0.000000  0.454034  0.000000
       6    0.000000  0.000000  0.000000  0.000000  0.000000  0.071269
-------------------------------------------------------------------------------

  Mechanical properties :

-------------------------------------------------------------------------------
  Convention :                    Reuss         Voigt         Hill
-------------------------------------------------------------------------------
  Bulk  Modulus (GPa)     =      33.25376      33.92187      33.58782
  Shear Modulus (GPa)     =       4.86428      22.16525      13.51477
-------------------------------------------------------------------------------
  Velocity S-wave (km/s)  =       1.28723       2.74779       2.14561
  Velocity P-wave (km/s)  =       3.67924       4.64997       4.19279
-------------------------------------------------------------------------------
  Compressibility (1/GPa) =    0.03007179
-------------------------------------------------------------------------------
  Stress axis :                     x             y             z
-------------------------------------------------------------------------------
  Youngs Moduli (GPa)     =      75.18935      75.18935     129.76760
-------------------------------------------------------------------------------
  Poissons Ratio (x)      =                     0.19680      -0.03247
  Poissons Ratio (y)      =       0.19680                    -0.03247
  Poissons Ratio (z)      =      -0.01882      -0.01882
-------------------------------------------------------------------------------


  Piezoelectric Strain Matrix: (Units=C/m**2)

-------------------------------------------------------------------------------
  Indices      1         2         3         4         5         6    
-------------------------------------------------------------------------------
       x     0.00000   0.00000   0.00000   0.00000   0.00000   0.00000
       y     0.00000   0.00000   0.00000   0.00000   0.00000   0.00000
       z     0.00000   0.00000   0.00000   0.00000   0.00000   0.00000
-------------------------------------------------------------------------------


  Piezoelectric Stress Matrix: (Units=10**-11 C/N)

-------------------------------------------------------------------------------
  Indices      1         2         3         4         5         6    
-------------------------------------------------------------------------------
       x     0.00000   0.00000   0.00000   0.00000   0.00000   0.00000
       y     0.00000   0.00000   0.00000   0.00000   0.00000   0.00000
       z     0.00000   0.00000   0.00000   0.00000   0.00000   0.00000
-------------------------------------------------------------------------------


  Static dielectric constant tensor : 

-------------------------------------------------------------------------------
              x         y         z
-------------------------------------------------------------------------------
       x     3.31852   0.00000   0.00000
       y     0.00000   3.31852   0.00000
       z     0.00000   0.00000   1.04658
--------------------------------------------------------------------------------

  High frequency dielectric constant tensor : 

-------------------------------------------------------------------------------
              x         y         z
-------------------------------------------------------------------------------
       x     1.42781   0.00000   0.00000
       y     0.00000   1.42781   0.00000
       z     0.00000   0.00000   1.42361
-------------------------------------------------------------------------------

  Static refractive indices : 

-------------------------------------------------------------------------------
    1 =    1.02303      2 =    1.82168      3 =    1.82168
-------------------------------------------------------------------------------

  High frequency refractive indices : 

-------------------------------------------------------------------------------
    1 =    1.19315      2 =    1.19491      3 =    1.19491
-------------------------------------------------------------------------------


  Time to end of optimisation =       0.0464 seconds


  Peak dynamic memory used =       0.59 MB 


  Timing analysis for GULP :

--------------------------------------------------------------------------------
  Task / Subroutine                                          Time (Seconds)
--------------------------------------------------------------------------------
  Calculation of reciprocal space energy and derivatives          0.0009
  Calculation of reciprocal space energy using symmetry           0.0039
  Calculation of real space energy and derivatives                0.0038
  Calculation of real space energy using symmetry                 0.0341
  Symmetry generation of equivalent positions                     0.0004
--------------------------------------------------------------------------------
  Total CPU time                                                  0.0465
--------------------------------------------------------------------------------


  CIF file written as perov.cif                                               


  Job Finished at 12:49.35 22nd February   2017                               

