********************************************************************************
*                       GENERAL UTILITY LATTICE PROGRAM                        *
*                                 Julian Gale                                  *
*                      Nanochemistry Research Institute                        *
*                           Department of Chemistry                            *
*                    Curtin University, Western Australia                      *
********************************************************************************
* Version = 4.3.2 * Last modified =  3rd March 2015                            *
********************************************************************************
*  optimise     - perform optimisation run                                     *
*  conp         - constant pressure calculation                                *
*  property     - calculate properties for final geometry                      *
********************************************************************************

  Job Started  at 12:49.37 22nd February   2017                               

  Number of CPUs =     1


  Total number of configurations input =   1

********************************************************************************
*  Input for Configuration =   1                                               *
********************************************************************************

  Formula = K2Zn2F6                                                     

  Number of irreducible atoms/shells =       6


  Total number atoms/shells =      16

  Dimensionality = 3               :  Bulk   


  Symmetry :

  Crystal family                   :  Tetragonal  
  Crystal class  (Groth - 1921)    :  Ditetragonal Dipyramidal             

  Space group (centrosymmetric)    :  P 4/M B M       

  Patterson group                  :  P 4/m m m

  Cartesian lattice vectors (Angstroms) :

        4.200000    0.000000    0.000000
        0.000000    4.200000    0.000000
        0.000000    0.000000    4.200000

  Cell parameters (Angstroms/Degrees):

  a =       4.2000    alpha =  90.0000
  b =       4.2000    beta  =  90.0000
  c =       4.2000    gamma =  90.0000

  Initial cell volume =          74.088000 Angs**3

  Temperature of configuration =  0.000     K 

  Pressure of configuration =         0.000 GPa 

  Fractional coordinates of asymmetric unit :

--------------------------------------------------------------------------------
   No.  Atomic       x           y          z         Charge      Occupancy
        Label      (Frac)      (Frac)     (Frac)        (e)         (Frac)  
--------------------------------------------------------------------------------
      1 K     c    0.000000    0.000000    0.000000     1.40000    1.000000    
      2 Zn    c    0.000000    0.500000    0.000000     1.60000    1.000000    
      3 F     c    0.000000    0.500000    0.500000     0.37800    1.000000    
      4 F     c    0.227100 *  0.727100    0.000000     0.37800    1.000000    
      5 F     s    0.000000    0.500000    0.500000    -1.37800    1.000000    
      6 F     s    0.227100 *  0.727100    0.000000    -1.37800    1.000000    
--------------------------------------------------------------------------------


  Constraints : 

--------------------------------------------------------------------------------
  Constraint no.      Unconstrained     Constrained    Coefficient    Offset
                         Variable         Variable
--------------------------------------------------------------------------------
           1              Strain 1        Strain 2       1.00000      0.0000
           2                 4 x             4 y         1.00000      0.5000
           3                 6 x             6 y         1.00000      0.5000
--------------------------------------------------------------------------------


********************************************************************************
*  General input information                                                   *
********************************************************************************

  Species output for all configurations : 

--------------------------------------------------------------------------------
  Species    Type    Atomic    Atomic    Charge       Radii (Angs)     Library
                     Number     Mass       (e)     Cova   Ionic  VDW   Symbol
--------------------------------------------------------------------------------
    K        Core       19      39.10   1.400000   1.330  0.000  2.800          
    Zn       Core       30      65.39   1.600000   1.450  0.000  2.160          
    F        Core        9      19.00   0.378000   0.710  0.000  1.300          
    F        Shell       9       0.00  -1.378000   0.710  0.000  1.300          
--------------------------------------------------------------------------------


  Lattice summation method               =    Ewald          (3-D)
                                         =    Parry          (2-D)
                                         =    Saunders et al (1-D)
  Accuracy factor for lattice sums       =   12.000


  Time limit = Infinity

  Maximum range for interatomic potentials =    100000.000000 Angstroms

  General interatomic potentials :

--------------------------------------------------------------------------------
Atom  Types   Potential         A         B         C         D     Cutoffs(Ang)
  1     2                                                            Min    Max 
--------------------------------------------------------------------------------
K    c K    c Buckingham    0.219E+04 0.192      0.00      0.00     0.000 10.000
Zn   c F    s Buckingham    0.148E+04 0.266      0.00      0.00     0.000 10.000
F    s F    s Buckingham     912.     0.271      13.8      0.00     0.000 10.000
K    c F    s Buckingham    0.352E+04 0.267      0.00      0.00     0.000 10.000
F    c F    s Spring (c-s)   24.3      0.00      0.00      0.00     0.000  0.800
--------------------------------------------------------------------------------

********************************************************************************
*  Output for configuration   1                                                *
********************************************************************************


  Components of energy : 

--------------------------------------------------------------------------------
  Interatomic potentials     =         162.45946484 eV
  Monopole - monopole (real) =         -43.99826403 eV
  Monopole - monopole (recip)=         -62.45646765 eV
  Monopole - monopole (total)=        -106.45473168 eV
--------------------------------------------------------------------------------
  Total lattice energy       =          56.00473316 eV
--------------------------------------------------------------------------------
  Total lattice energy       =            5403.6006 kJ/(mole unit cells)
--------------------------------------------------------------------------------


  Number of variables =        4

  Maximum number of calculations  =          1000
  Maximum Hessian update interval =            10
  Maximum step size               =   1.000000000
  Maximum parameter tolerance     =   0.000010000
  Maximum function  tolerance     =   0.000010000
  Maximum gradient  tolerance     =   0.001000000
  Maximum gradient  component     =   0.010000000

  Symmetry constrained optimisation

  Symmetry used for second derivatives

  Cell parameters to be optimised using strains

  Newton-Raphson optimiser to be used

  BFGS hessian update to be used

  Start of bulk optimisation :

  Cycle:      0 Energy:        56.004733  Gnorm:    210.233463  CPU:    0.005
  ** Hessian calculated **
  Cycle:      1 Energy:       -66.574305  Gnorm:     20.848837  CPU:    0.012
  ** Hessian calculated **
  Cycle:      2 Energy:       -67.074839  Gnorm:      5.347352  CPU:    0.018
  Cycle:      3 Energy:       -67.122651  Gnorm:      0.046954  CPU:    0.021
  Cycle:      4 Energy:       -67.122773  Gnorm:      0.016746  CPU:    0.024


  **** Optimisation achieved ****


  Final energy =     -67.12277818 eV
  Final Gnorm  =       0.00070523

  Components of energy : 

--------------------------------------------------------------------------------
  Interatomic potentials     =           8.84760534 eV
  Monopole - monopole (real) =         -14.52203918 eV
  Monopole - monopole (recip)=         -61.44834434 eV
  Monopole - monopole (total)=         -75.97038352 eV
--------------------------------------------------------------------------------
  Total lattice energy       =         -67.12277818 eV
--------------------------------------------------------------------------------
  Total lattice energy       =           -6476.3220 kJ/(mole unit cells)
--------------------------------------------------------------------------------

  Final asymmetric unit coordinates :

--------------------------------------------------------------------------------
   No.  Atomic        x           y           z         Radius
        Label       (Frac)      (Frac)      (Frac)       (Angs) 
--------------------------------------------------------------------------------
     1  K     c     0.000000    0.000000    0.000000    0.000000
     2  Zn    c     0.000000    0.500000    0.000000    0.000000
     3  F     c     0.000000    0.500000    0.500000    0.000000
     4  F     c     0.249998    0.749998    0.000000    0.000000
     5  F     s     0.000000    0.500000    0.500000    0.000000
     6  F     s     0.249997    0.749997    0.000000    0.000000
--------------------------------------------------------------------------------

  Final Cartesian lattice vectors (Angstroms) :

        6.657230    0.000000    0.000000
        0.000000    6.657230    0.000000
        0.000000    0.000000    4.025531


  Final cell parameters and derivatives :

--------------------------------------------------------------------------------
       a            6.657230 Angstrom     dE/de1(xx)    -0.000396 eV/strain
       b            6.657230 Angstrom     dE/de2(yy)     0.000000 eV/strain
       c            4.025531 Angstrom     dE/de3(zz)     0.000193 eV/strain
       alpha       90.000000 Degrees      dE/de4(yz)     0.000000 eV/strain
       beta        90.000000 Degrees      dE/de5(xz)     0.000000 eV/strain
       gamma       90.000000 Degrees      dE/de6(xy)     0.000000 eV/strain
--------------------------------------------------------------------------------

  Primitive cell volume =           178.406321 Angs**3

  Density of cell =      3.006224 g/cm**3

  Non-primitive cell volume =           178.406321 Angs**3


  Final internal derivatives :

--------------------------------------------------------------------------------
   No.  Atomic          a             b             c           Radius
        Label          (eV)          (eV)          (eV)        (eV/Angs)
--------------------------------------------------------------------------------
      1 K     c       0.000000      0.000000      0.000000      0.000000
      2 Zn    c       0.000000      0.000000      0.000000      0.000000
      3 F     c       0.000000      0.000000      0.000000      0.000000
      4 F     c       0.001754      0.000000      0.000000      0.000000
      5 F     s       0.000000      0.000000      0.000000      0.000000
      6 F     s      -0.002165      0.000000      0.000000      0.000000
--------------------------------------------------------------------------------
  Maximum abs         0.002165      0.000000      0.000000      0.000000
--------------------------------------------------------------------------------


  Born effective charge tensors : 

-------------------------------------------------------------------------------
  Atom             x           y             z
-------------------------------------------------------------------------------
   1 K     x       1.1573      0.0000      0.0000
           y       0.0000      1.1573      0.0000
           z       0.0000      0.0000      1.3652
-------------------------------------------------------------------------------
   2 Zn    x       1.6042      0.0000      0.0000
           y       0.0000      1.6042      0.0000
           z       0.0000      0.0000      1.1158
-------------------------------------------------------------------------------
   3 F     x      -0.9509      0.0000      0.0000
           y       0.0000     -0.9509      0.0000
           z       0.0000      0.0000     -0.7708
-------------------------------------------------------------------------------
   4 F     x      -0.9053     -0.2421      0.0000
           y      -0.2421     -0.9053      0.0000
           z       0.0000      0.0000     -0.8551
-------------------------------------------------------------------------------




  Elastic Constant Matrix: (Units=GPa)

-------------------------------------------------------------------------------
  Indices      1         2         3         4         5         6    
-------------------------------------------------------------------------------
       1    115.4154   45.4992    3.6660    0.0000    0.0000    0.0000
       2     45.4992  115.4154    3.6660    0.0000    0.0000    0.0000
       3      3.6660    3.6660  114.1314    0.0000    0.0000    0.0000
       4      0.0000    0.0000    0.0000    3.6660    0.0000    0.0000
       5      0.0000    0.0000    0.0000    0.0000    3.6660    0.0000
       6      0.0000    0.0000    0.0000    0.0000    0.0000   45.4991
-------------------------------------------------------------------------------


  Elastic Compliance Matrix: (Units=1/GPa)

-------------------------------------------------------------------------------
  Indices      1         2         3         4         5         6    
-------------------------------------------------------------------------------
       1    0.010263 -0.004040 -0.000200  0.000000  0.000000  0.000000
       2   -0.004040  0.010263 -0.000200  0.000000  0.000000  0.000000
       3   -0.000200 -0.000200  0.008775  0.000000  0.000000  0.000000
       4    0.000000  0.000000  0.000000  0.272774  0.000000  0.000000
       5    0.000000  0.000000  0.000000  0.000000  0.272774  0.000000
       6    0.000000  0.000000  0.000000  0.000000  0.000000  0.021978
-------------------------------------------------------------------------------

  Mechanical properties :

-------------------------------------------------------------------------------
  Convention :                    Reuss         Voigt         Hill
-------------------------------------------------------------------------------
  Bulk  Modulus (GPa)     =      48.96632      50.06944      49.51788
  Shear Modulus (GPa)     =       8.16307      30.04163      19.10235
-------------------------------------------------------------------------------
  Velocity S-wave (km/s)  =       1.64784       3.16119       2.52077
  Velocity P-wave (km/s)  =       4.46193       5.47535       4.99441
-------------------------------------------------------------------------------
  Compressibility (1/GPa) =    0.02042220
-------------------------------------------------------------------------------
  Stress axis :                     x             y             z
-------------------------------------------------------------------------------
  Youngs Moduli (GPa)     =      97.43541      97.43541     113.96439
-------------------------------------------------------------------------------
  Poissons Ratio (x)      =                     0.39360       0.02278
  Poissons Ratio (y)      =       0.39360                     0.02278
  Poissons Ratio (z)      =       0.01948       0.01948
-------------------------------------------------------------------------------


  Piezoelectric Strain Matrix: (Units=C/m**2)

-------------------------------------------------------------------------------
  Indices      1         2         3         4         5         6    
-------------------------------------------------------------------------------
       x     0.00000   0.00000   0.00000   0.00000   0.00000   0.00000
       y     0.00000   0.00000   0.00000   0.00000   0.00000   0.00000
       z     0.00000   0.00000   0.00000   0.00000   0.00000   0.00000
-------------------------------------------------------------------------------


  Piezoelectric Stress Matrix: (Units=10**-11 C/N)

-------------------------------------------------------------------------------
  Indices      1         2         3         4         5         6    
-------------------------------------------------------------------------------
       x     0.00000   0.00000   0.00000   0.00000   0.00000   0.00000
       y     0.00000   0.00000   0.00000   0.00000   0.00000   0.00000
       z     0.00000   0.00000   0.00000   0.00000   0.00000   0.00000
-------------------------------------------------------------------------------


  Static dielectric constant tensor : 

-------------------------------------------------------------------------------
              x         y         z
-------------------------------------------------------------------------------
       x   -12.26136   0.00000   0.00000
       y     0.00000 -12.26136   0.00000
       z     0.00000   0.00000   0.42312
--------------------------------------------------------------------------------

  High frequency dielectric constant tensor : 

-------------------------------------------------------------------------------
              x         y         z
-------------------------------------------------------------------------------
       x     1.46884   0.00000   0.00000
       y     0.00000   1.46884   0.00000
       z     0.00000   0.00000   1.43500
-------------------------------------------------------------------------------

  Static refractive indices : 

-------------------------------------------------------------------------------
    1 =   -3.50162      2 =   -3.50162      3 =    0.65048
-------------------------------------------------------------------------------

  High frequency refractive indices : 

-------------------------------------------------------------------------------
    1 =    1.19791      2 =    1.21196      3 =    1.21196
-------------------------------------------------------------------------------


  Time to end of optimisation =       0.0322 seconds


  Peak dynamic memory used =       0.59 MB 


  Timing analysis for GULP :

--------------------------------------------------------------------------------
  Task / Subroutine                                          Time (Seconds)
--------------------------------------------------------------------------------
  Calculation of reciprocal space energy and derivatives          0.0007
  Calculation of reciprocal space energy using symmetry           0.0023
  Calculation of real space energy and derivatives                0.0036
  Calculation of real space energy using symmetry                 0.0217
  Symmetry generation of equivalent positions                     0.0004
--------------------------------------------------------------------------------
  Total CPU time                                                  0.0323
--------------------------------------------------------------------------------


  CIF file written as perov.cif                                               


  Job Finished at 12:49.37 22nd February   2017                               

