********************************************************************************
*                       GENERAL UTILITY LATTICE PROGRAM                        *
*                                 Julian Gale                                  *
*                      Nanochemistry Research Institute                        *
*                           Department of Chemistry                            *
*                    Curtin University, Western Australia                      *
********************************************************************************
* Version = 4.3.2 * Last modified =  3rd March 2015                            *
********************************************************************************
*  optimise     - perform optimisation run                                     *
*  conp         - constant pressure calculation                                *
*  property     - calculate properties for final geometry                      *
********************************************************************************

  Job Started  at 12:49.33 22nd February   2017                               

  Number of CPUs =     1


  Total number of configurations input =   1

********************************************************************************
*  Input for Configuration =   1                                               *
********************************************************************************

  Formula = K2Zn2F6                                                     

  Number of irreducible atoms/shells =       6


  Total number atoms/shells =      16

  Dimensionality = 3               :  Bulk   


  Symmetry :

  Crystal family                   :  Tetragonal  
  Crystal class  (Groth - 1921)    :  Ditetragonal Dipyramidal             

  Space group (centrosymmetric)    :  P 4/M B M       

  Patterson group                  :  P 4/m m m

  Cartesian lattice vectors (Angstroms) :

        4.200000    0.000000    0.000000
        0.000000    4.200000    0.000000
        0.000000    0.000000    4.200000

  Cell parameters (Angstroms/Degrees):

  a =       4.2000    alpha =  90.0000
  b =       4.2000    beta  =  90.0000
  c =       4.2000    gamma =  90.0000

  Initial cell volume =          74.088000 Angs**3

  Temperature of configuration =  0.000     K 

  Pressure of configuration =         0.000 GPa 

  Fractional coordinates of asymmetric unit :

--------------------------------------------------------------------------------
   No.  Atomic       x           y          z         Charge      Occupancy
        Label      (Frac)      (Frac)     (Frac)        (e)         (Frac)  
--------------------------------------------------------------------------------
      1 K     c    0.000000    0.000000    0.000000     0.80000    1.000000    
      2 Zn    c    0.000000    0.500000    0.000000     1.50000    1.000000    
      3 F     c    0.000000    0.500000    0.500000     0.37800    1.000000    
      4 F     c    0.227100 *  0.727100    0.000000     0.37800    1.000000    
      5 F     s    0.000000    0.500000    0.500000    -1.14467    1.000000    
      6 F     s    0.227100 *  0.727100    0.000000    -1.14467    1.000000    
--------------------------------------------------------------------------------


  Constraints : 

--------------------------------------------------------------------------------
  Constraint no.      Unconstrained     Constrained    Coefficient    Offset
                         Variable         Variable
--------------------------------------------------------------------------------
           1              Strain 1        Strain 2       1.00000      0.0000
           2                 4 x             4 y         1.00000      0.5000
           3                 6 x             6 y         1.00000      0.5000
--------------------------------------------------------------------------------


********************************************************************************
*  General input information                                                   *
********************************************************************************

  Species output for all configurations : 

--------------------------------------------------------------------------------
  Species    Type    Atomic    Atomic    Charge       Radii (Angs)     Library
                     Number     Mass       (e)     Cova   Ionic  VDW   Symbol
--------------------------------------------------------------------------------
    K        Core       19      39.10   0.800000   1.330  0.000  2.800          
    Zn       Core       30      65.39   1.500000   1.450  0.000  2.160          
    F        Core        9      19.00   0.378000   0.710  0.000  1.300          
    F        Shell       9       0.00  -1.144667   0.710  0.000  1.300          
--------------------------------------------------------------------------------


  Lattice summation method               =    Ewald          (3-D)
                                         =    Parry          (2-D)
                                         =    Saunders et al (1-D)
  Accuracy factor for lattice sums       =   12.000


  Time limit = Infinity

  Maximum range for interatomic potentials =    100000.000000 Angstroms

  General interatomic potentials :

--------------------------------------------------------------------------------
Atom  Types   Potential         A         B         C         D     Cutoffs(Ang)
  1     2                                                            Min    Max 
--------------------------------------------------------------------------------
K    c K    c Buckingham    0.219E+04 0.192      0.00      0.00     0.000 10.000
Zn   c F    s Buckingham    0.148E+04 0.266      0.00      0.00     0.000 10.000
F    s F    s Buckingham     912.     0.271      13.8      0.00     0.000 10.000
K    c F    s Buckingham    0.352E+04 0.267      0.00      0.00     0.000 10.000
F    c F    s Spring (c-s)   16.8      0.00      0.00      0.00     0.000  0.800
--------------------------------------------------------------------------------

********************************************************************************
*  Output for configuration   1                                                *
********************************************************************************


  Components of energy : 

--------------------------------------------------------------------------------
  Interatomic potentials     =         162.45946484 eV
  Monopole - monopole (real) =         -26.98774662 eV
  Monopole - monopole (recip)=         -38.73995559 eV
  Monopole - monopole (total)=         -65.72770221 eV
--------------------------------------------------------------------------------
  Total lattice energy       =          96.73176263 eV
--------------------------------------------------------------------------------
  Total lattice energy       =            9333.1364 kJ/(mole unit cells)
--------------------------------------------------------------------------------


  Number of variables =        4

  Maximum number of calculations  =          1000
  Maximum Hessian update interval =            10
  Maximum step size               =   1.000000000
  Maximum parameter tolerance     =   0.000010000
  Maximum function  tolerance     =   0.000010000
  Maximum gradient  tolerance     =   0.001000000
  Maximum gradient  component     =   0.010000000

  Symmetry constrained optimisation

  Symmetry used for second derivatives

  Cell parameters to be optimised using strains

  Newton-Raphson optimiser to be used

  BFGS hessian update to be used

  Start of bulk optimisation :

  Cycle:      0 Energy:        96.731763  Gnorm:    218.655125  CPU:    0.005
  ** Hessian calculated **
  Cycle:      1 Energy:       -38.377737  Gnorm:     24.382987  CPU:    0.012
  ** Hessian calculated **
  Cycle:      2 Energy:       -39.532557  Gnorm:      8.265337  CPU:    0.018
  Cycle:      3 Energy:       -39.745242  Gnorm:      0.888734  CPU:    0.021
  Cycle:      4 Energy:       -39.797929  Gnorm:      2.555836  CPU:    0.025
  Cycle:      5 Energy:       -39.804247  Gnorm:      2.957408  CPU:    0.029
  Cycle:      6 Energy:       -39.820767  Gnorm:      0.340977  CPU:    0.033
  Cycle:      7 Energy:       -39.822181  Gnorm:      0.405245  CPU:    0.036
  Cycle:      8 Energy:       -39.822447  Gnorm:      0.026114  CPU:    0.039
  Cycle:      9 Energy:       -39.822448  Gnorm:      0.001161  CPU:    0.042


  **** Optimisation achieved ****


  Final energy =     -39.82244818 eV
  Final Gnorm  =       0.00053719

  Components of energy : 

--------------------------------------------------------------------------------
  Interatomic potentials     =           5.08150359 eV
  Monopole - monopole (real) =          -7.06433036 eV
  Monopole - monopole (recip)=         -37.83962141 eV
  Monopole - monopole (total)=         -44.90395177 eV
--------------------------------------------------------------------------------
  Total lattice energy       =         -39.82244818 eV
--------------------------------------------------------------------------------
  Total lattice energy       =           -3842.2575 kJ/(mole unit cells)
--------------------------------------------------------------------------------

  Final asymmetric unit coordinates :

--------------------------------------------------------------------------------
   No.  Atomic        x           y           z         Radius
        Label       (Frac)      (Frac)      (Frac)       (Angs) 
--------------------------------------------------------------------------------
     1  K     c     0.000000    0.000000    0.000000    0.000000
     2  Zn    c     0.000000    0.500000    0.000000    0.000000
     3  F     c     0.000000    0.500000    0.500000    0.000000
     4  F     c     0.217082    0.717082    0.000000    0.000000
     5  F     s     0.000000    0.500000    0.500000    0.000000
     6  F     s     0.214298    0.714298    0.000000    0.000000
--------------------------------------------------------------------------------

  Final Cartesian lattice vectors (Angstroms) :

        7.311572    0.000000    0.000000
        0.000000    7.311572    0.000000
        0.000000    0.000000    4.241163


  Final cell parameters and derivatives :

--------------------------------------------------------------------------------
       a            7.311572 Angstrom     dE/de1(xx)     0.000043 eV/strain
       b            7.311572 Angstrom     dE/de2(yy)     0.000000 eV/strain
       c            4.241163 Angstrom     dE/de3(zz)     0.000063 eV/strain
       alpha       90.000000 Degrees      dE/de4(yz)     0.000000 eV/strain
       beta        90.000000 Degrees      dE/de5(xz)     0.000000 eV/strain
       gamma       90.000000 Degrees      dE/de6(xy)     0.000000 eV/strain
--------------------------------------------------------------------------------

  Primitive cell volume =           226.728704 Angs**3

  Density of cell =      2.365512 g/cm**3

  Non-primitive cell volume =           226.728704 Angs**3


  Final internal derivatives :

--------------------------------------------------------------------------------
   No.  Atomic          a             b             c           Radius
        Label          (eV)          (eV)          (eV)        (eV/Angs)
--------------------------------------------------------------------------------
      1 K     c       0.000000      0.000000      0.000000      0.000000
      2 Zn    c       0.000000      0.000000      0.000000      0.000000
      3 F     c       0.000000      0.000000      0.000000      0.000000
      4 F     c      -0.001744      0.000000      0.000000      0.000000
      5 F     s       0.000000      0.000000      0.000000      0.000000
      6 F     s       0.001253      0.000000      0.000000      0.000000
--------------------------------------------------------------------------------
  Maximum abs         0.001744      0.000000      0.000000      0.000000
--------------------------------------------------------------------------------


  Born effective charge tensors : 

-------------------------------------------------------------------------------
  Atom             x           y             z
-------------------------------------------------------------------------------
   1 K     x       0.6703     -0.0018      0.0000
           y       0.0018      0.6703      0.0000
           z       0.0000      0.0000      0.7905
-------------------------------------------------------------------------------
   2 Zn    x       1.3716     -0.1144      0.0000
           y      -0.1144      1.3716      0.0000
           z       0.0000      0.0000      1.1240
-------------------------------------------------------------------------------
   3 F     x      -0.6778      0.0053      0.0000
           y       0.0053     -0.6778      0.0000
           z       0.0000      0.0000     -0.5675
-------------------------------------------------------------------------------
   4 F     x      -0.6820     -0.1345      0.0000
           y      -0.1345     -0.6820      0.0000
           z       0.0000      0.0000     -0.6735
-------------------------------------------------------------------------------




  Elastic Constant Matrix: (Units=GPa)

-------------------------------------------------------------------------------
  Indices      1         2         3         4         5         6    
-------------------------------------------------------------------------------
       1     38.3875    9.7357   -1.3634    0.0000    0.0000    0.0000
       2      9.7357   38.3875   -1.3634    0.0000    0.0000    0.0000
       3     -1.3634   -1.3634   64.8783    0.0000    0.0000    0.0000
       4      0.0000    0.0000    0.0000    1.3419    0.0000    0.0000
       5      0.0000    0.0000    0.0000    0.0000    1.3419    0.0000
       6      0.0000    0.0000    0.0000    0.0000    0.0000    9.9935
-------------------------------------------------------------------------------


  Elastic Compliance Matrix: (Units=1/GPa)

-------------------------------------------------------------------------------
  Indices      1         2         3         4         5         6    
-------------------------------------------------------------------------------
       1    0.027853 -0.007049  0.000437  0.000000  0.000000  0.000000
       2   -0.007049  0.027853  0.000437  0.000000  0.000000  0.000000
       3    0.000437  0.000437  0.015432  0.000000  0.000000  0.000000
       4    0.000000  0.000000  0.000000  0.745219  0.000000  0.000000
       5    0.000000  0.000000  0.000000  0.000000  0.745219  0.000000
       6    0.000000  0.000000  0.000000  0.000000  0.000000  0.100065
-------------------------------------------------------------------------------

  Mechanical properties :

-------------------------------------------------------------------------------
  Convention :                    Reuss         Voigt         Hill
-------------------------------------------------------------------------------
  Bulk  Modulus (GPa)     =      17.00959      17.29675      17.15317
  Shear Modulus (GPa)     =       2.95232      11.51174       7.23203
-------------------------------------------------------------------------------
  Velocity S-wave (km/s)  =       1.11717       2.20601       1.74851
  Velocity P-wave (km/s)  =       2.97569       3.71493       3.36567
-------------------------------------------------------------------------------
  Compressibility (1/GPa) =    0.05879035
-------------------------------------------------------------------------------
  Stress axis :                     x             y             z
-------------------------------------------------------------------------------
  Youngs Moduli (GPa)     =      35.90238      35.90238      64.80100
-------------------------------------------------------------------------------
  Poissons Ratio (x)      =                     0.25306      -0.02833
  Poissons Ratio (y)      =       0.25306                    -0.02833
  Poissons Ratio (z)      =      -0.01570      -0.01570
-------------------------------------------------------------------------------


  Piezoelectric Strain Matrix: (Units=C/m**2)

-------------------------------------------------------------------------------
  Indices      1         2         3         4         5         6    
-------------------------------------------------------------------------------
       x     0.00000   0.00000   0.00000   0.00000   0.00000   0.00000
       y     0.00000   0.00000   0.00000   0.00000   0.00000   0.00000
       z     0.00000   0.00000   0.00000   0.00000   0.00000   0.00000
-------------------------------------------------------------------------------


  Piezoelectric Stress Matrix: (Units=10**-11 C/N)

-------------------------------------------------------------------------------
  Indices      1         2         3         4         5         6    
-------------------------------------------------------------------------------
       x     0.00000   0.00000   0.00000   0.00000   0.00000   0.00000
       y     0.00000   0.00000   0.00000   0.00000   0.00000   0.00000
       z     0.00000   0.00000   0.00000   0.00000   0.00000   0.00000
-------------------------------------------------------------------------------


  Static dielectric constant tensor : 

-------------------------------------------------------------------------------
              x         y         z
-------------------------------------------------------------------------------
       x     1.62022   0.00000   0.00000
       y     0.00000   1.62022   0.00000
       z     0.00000   0.00000   1.10411
--------------------------------------------------------------------------------

  High frequency dielectric constant tensor : 

-------------------------------------------------------------------------------
              x         y         z
-------------------------------------------------------------------------------
       x     1.36007   0.00000   0.00000
       y     0.00000   1.36007   0.00000
       z     0.00000   0.00000   1.34827
-------------------------------------------------------------------------------

  Static refractive indices : 

-------------------------------------------------------------------------------
    1 =    1.05077      2 =    1.27288      3 =    1.27288
-------------------------------------------------------------------------------

  High frequency refractive indices : 

-------------------------------------------------------------------------------
    1 =    1.16115      2 =    1.16622      3 =    1.16622
-------------------------------------------------------------------------------


  Time to end of optimisation =       0.0510 seconds


  Peak dynamic memory used =       0.59 MB 


  Timing analysis for GULP :

--------------------------------------------------------------------------------
  Task / Subroutine                                          Time (Seconds)
--------------------------------------------------------------------------------
  Calculation of reciprocal space energy and derivatives          0.0009
  Calculation of reciprocal space energy using symmetry           0.0042
  Calculation of real space energy and derivatives                0.0038
  Calculation of real space energy using symmetry                 0.0381
  Symmetry generation of equivalent positions                     0.0005
--------------------------------------------------------------------------------
  Total CPU time                                                  0.0510
--------------------------------------------------------------------------------


  CIF file written as perov.cif                                               


  Job Finished at 12:49.33 22nd February   2017                               

