********************************************************************************
*                       GENERAL UTILITY LATTICE PROGRAM                        *
*                                 Julian Gale                                  *
*                      Nanochemistry Research Institute                        *
*                           Department of Chemistry                            *
*                    Curtin University, Western Australia                      *
********************************************************************************
* Version = 4.3.2 * Last modified =  3rd March 2015                            *
********************************************************************************
*  optimise     - perform optimisation run                                     *
*  conp         - constant pressure calculation                                *
*  property     - calculate properties for final geometry                      *
********************************************************************************

  Job Started  at 12:49.33 22nd February   2017                               

  Number of CPUs =     1


  Total number of configurations input =   1

********************************************************************************
*  Input for Configuration =   1                                               *
********************************************************************************

  Formula = K2Zn2F6                                                     

  Number of irreducible atoms/shells =       6


  Total number atoms/shells =      16

  Dimensionality = 3               :  Bulk   


  Symmetry :

  Crystal family                   :  Tetragonal  
  Crystal class  (Groth - 1921)    :  Ditetragonal Dipyramidal             

  Space group (centrosymmetric)    :  P 4/M B M       

  Patterson group                  :  P 4/m m m

  Cartesian lattice vectors (Angstroms) :

        4.200000    0.000000    0.000000
        0.000000    4.200000    0.000000
        0.000000    0.000000    4.200000

  Cell parameters (Angstroms/Degrees):

  a =       4.2000    alpha =  90.0000
  b =       4.2000    beta  =  90.0000
  c =       4.2000    gamma =  90.0000

  Initial cell volume =          74.088000 Angs**3

  Temperature of configuration =  0.000     K 

  Pressure of configuration =         0.000 GPa 

  Fractional coordinates of asymmetric unit :

--------------------------------------------------------------------------------
   No.  Atomic       x           y          z         Charge      Occupancy
        Label      (Frac)      (Frac)     (Frac)        (e)         (Frac)  
--------------------------------------------------------------------------------
      1 K     c    0.000000    0.000000    0.000000     0.70000    1.000000    
      2 Zn    c    0.000000    0.500000    0.000000     1.60000    1.000000    
      3 F     c    0.000000    0.500000    0.500000     0.37800    1.000000    
      4 F     c    0.227100 *  0.727100    0.000000     0.37800    1.000000    
      5 F     s    0.000000    0.500000    0.500000    -1.14467    1.000000    
      6 F     s    0.227100 *  0.727100    0.000000    -1.14467    1.000000    
--------------------------------------------------------------------------------


  Constraints : 

--------------------------------------------------------------------------------
  Constraint no.      Unconstrained     Constrained    Coefficient    Offset
                         Variable         Variable
--------------------------------------------------------------------------------
           1              Strain 1        Strain 2       1.00000      0.0000
           2                 4 x             4 y         1.00000      0.5000
           3                 6 x             6 y         1.00000      0.5000
--------------------------------------------------------------------------------


********************************************************************************
*  General input information                                                   *
********************************************************************************

  Species output for all configurations : 

--------------------------------------------------------------------------------
  Species    Type    Atomic    Atomic    Charge       Radii (Angs)     Library
                     Number     Mass       (e)     Cova   Ionic  VDW   Symbol
--------------------------------------------------------------------------------
    K        Core       19      39.10   0.700000   1.330  0.000  2.800          
    Zn       Core       30      65.39   1.600000   1.450  0.000  2.160          
    F        Core        9      19.00   0.378000   0.710  0.000  1.300          
    F        Shell       9       0.00  -1.144667   0.710  0.000  1.300          
--------------------------------------------------------------------------------


  Lattice summation method               =    Ewald          (3-D)
                                         =    Parry          (2-D)
                                         =    Saunders et al (1-D)
  Accuracy factor for lattice sums       =   12.000


  Time limit = Infinity

  Maximum range for interatomic potentials =    100000.000000 Angstroms

  General interatomic potentials :

--------------------------------------------------------------------------------
Atom  Types   Potential         A         B         C         D     Cutoffs(Ang)
  1     2                                                            Min    Max 
--------------------------------------------------------------------------------
K    c K    c Buckingham    0.219E+04 0.192      0.00      0.00     0.000 10.000
Zn   c F    s Buckingham    0.148E+04 0.266      0.00      0.00     0.000 10.000
F    s F    s Buckingham     912.     0.271      13.8      0.00     0.000 10.000
K    c F    s Buckingham    0.352E+04 0.267      0.00      0.00     0.000 10.000
F    c F    s Spring (c-s)   16.8      0.00      0.00      0.00     0.000  0.800
--------------------------------------------------------------------------------

********************************************************************************
*  Output for configuration   1                                                *
********************************************************************************


  Components of energy : 

--------------------------------------------------------------------------------
  Interatomic potentials     =         162.45946484 eV
  Monopole - monopole (real) =         -27.59591784 eV
  Monopole - monopole (recip)=         -40.11275241 eV
  Monopole - monopole (total)=         -67.70867025 eV
--------------------------------------------------------------------------------
  Total lattice energy       =          94.75079459 eV
--------------------------------------------------------------------------------
  Total lattice energy       =            9142.0033 kJ/(mole unit cells)
--------------------------------------------------------------------------------


  Number of variables =        4

  Maximum number of calculations  =          1000
  Maximum Hessian update interval =            10
  Maximum step size               =   1.000000000
  Maximum parameter tolerance     =   0.000010000
  Maximum function  tolerance     =   0.000010000
  Maximum gradient  tolerance     =   0.001000000
  Maximum gradient  component     =   0.010000000

  Symmetry constrained optimisation

  Symmetry used for second derivatives

  Cell parameters to be optimised using strains

  Newton-Raphson optimiser to be used

  BFGS hessian update to be used

  Start of bulk optimisation :

  Cycle:      0 Energy:        94.750795  Gnorm:    217.752343  CPU:    0.005
  ** Hessian calculated **
  Cycle:      1 Energy:       -39.836310  Gnorm:     26.328233  CPU:    0.012
  ** Hessian calculated **
  Cycle:      2 Energy:       -41.076556  Gnorm:      8.548964  CPU:    0.017
  Cycle:      3 Energy:       -41.335317  Gnorm:      3.571460  CPU:    0.022
  Cycle:      4 Energy:       -41.456736  Gnorm:      0.937974  CPU:    0.025
  Cycle:      5 Energy:       -41.481533  Gnorm:      1.189036  CPU:    0.028
  Cycle:      6 Energy:       -41.487794  Gnorm:      1.018795  CPU:    0.032
  Cycle:      7 Energy:       -41.490757  Gnorm:      0.097305  CPU:    0.035
  Cycle:      8 Energy:       -41.490956  Gnorm:      0.078118  CPU:    0.038
  Cycle:      9 Energy:       -41.490970  Gnorm:      0.028693  CPU:    0.041
  Cycle:     10 Energy:       -41.490974  Gnorm:      0.003848  CPU:    0.044
  Cycle:     11 Energy:       -41.490974  Gnorm:      0.004843  CPU:    0.047
  ** Hessian calculated **
  Cycle:     12 Energy:       -41.490974  Gnorm:      0.001449  CPU:    0.052


  **** Optimisation achieved ****


  Final energy =     -41.49097450 eV
  Final Gnorm  =       0.00013334

  Components of energy : 

--------------------------------------------------------------------------------
  Interatomic potentials     =           5.48383408 eV
  Monopole - monopole (real) =          -8.35009648 eV
  Monopole - monopole (recip)=         -38.62471209 eV
  Monopole - monopole (total)=         -46.97480858 eV
--------------------------------------------------------------------------------
  Total lattice energy       =         -41.49097450 eV
--------------------------------------------------------------------------------
  Total lattice energy       =           -4003.2448 kJ/(mole unit cells)
--------------------------------------------------------------------------------

  Final asymmetric unit coordinates :

--------------------------------------------------------------------------------
   No.  Atomic        x           y           z         Radius
        Label       (Frac)      (Frac)      (Frac)       (Angs) 
--------------------------------------------------------------------------------
     1  K     c     0.000000    0.000000    0.000000    0.000000
     2  Zn    c     0.000000    0.500000    0.000000    0.000000
     3  F     c     0.000000    0.500000    0.500000    0.000000
     4  F     c     0.208226    0.708226    0.000000    0.000000
     5  F     s     0.000000    0.500000    0.500000    0.000000
     6  F     s     0.204318    0.704318    0.000000    0.000000
--------------------------------------------------------------------------------

  Final Cartesian lattice vectors (Angstroms) :

        7.399501    0.000000    0.000000
        0.000000    7.399501    0.000000
        0.000000    0.000000    4.198371


  Final cell parameters and derivatives :

--------------------------------------------------------------------------------
       a            7.399501 Angstrom     dE/de1(xx)    -0.000120 eV/strain
       b            7.399501 Angstrom     dE/de2(yy)     0.000000 eV/strain
       c            4.198371 Angstrom     dE/de3(zz)    -0.000030 eV/strain
       alpha       90.000000 Degrees      dE/de4(yz)     0.000000 eV/strain
       beta        90.000000 Degrees      dE/de5(xz)     0.000000 eV/strain
       gamma       90.000000 Degrees      dE/de6(xy)     0.000000 eV/strain
--------------------------------------------------------------------------------

  Primitive cell volume =           229.871753 Angs**3

  Density of cell =      2.333168 g/cm**3

  Non-primitive cell volume =           229.871753 Angs**3


  Final internal derivatives :

--------------------------------------------------------------------------------
   No.  Atomic          a             b             c           Radius
        Label          (eV)          (eV)          (eV)        (eV/Angs)
--------------------------------------------------------------------------------
      1 K     c       0.000000      0.000000      0.000000      0.000000
      2 Zn    c       0.000000      0.000000      0.000000      0.000000
      3 F     c       0.000000      0.000000      0.000000      0.000000
      4 F     c       0.000231      0.000000      0.000000      0.000000
      5 F     s       0.000000      0.000000      0.000000      0.000000
      6 F     s      -0.000465      0.000000      0.000000      0.000000
--------------------------------------------------------------------------------
  Maximum abs         0.000465      0.000000      0.000000      0.000000
--------------------------------------------------------------------------------


  Born effective charge tensors : 

-------------------------------------------------------------------------------
  Atom             x           y             z
-------------------------------------------------------------------------------
   1 K     x       0.5927     -0.0012      0.0000
           y       0.0012      0.5927      0.0000
           z       0.0000      0.0000      0.6945
-------------------------------------------------------------------------------
   2 Zn    x       1.3812     -0.1536      0.0000
           y      -0.1536      1.3812      0.0000
           z       0.0000      0.0000      1.2138
-------------------------------------------------------------------------------
   3 F     x      -0.6540      0.0062      0.0000
           y       0.0062     -0.6540      0.0000
           z       0.0000      0.0000     -0.5583
-------------------------------------------------------------------------------
   4 F     x      -0.6599     -0.1007      0.0000
           y      -0.1007     -0.6599      0.0000
           z       0.0000      0.0000     -0.6750
-------------------------------------------------------------------------------




  Elastic Constant Matrix: (Units=GPa)

-------------------------------------------------------------------------------
  Indices      1         2         3         4         5         6    
-------------------------------------------------------------------------------
       1     33.8798    7.2402   -1.2568    0.0000    0.0000    0.0000
       2      7.2402   33.8798   -1.2568    0.0000    0.0000    0.0000
       3     -1.2568   -1.2568   67.6559    0.0000    0.0000    0.0000
       4      0.0000    0.0000    0.0000    1.1002    0.0000    0.0000
       5      0.0000    0.0000    0.0000    0.0000    1.1002    0.0000
       6      0.0000    0.0000    0.0000    0.0000    0.0000    5.8001
-------------------------------------------------------------------------------


  Elastic Compliance Matrix: (Units=1/GPa)

-------------------------------------------------------------------------------
  Indices      1         2         3         4         5         6    
-------------------------------------------------------------------------------
       1    0.030942 -0.006596  0.000452  0.000000  0.000000  0.000000
       2   -0.006596  0.030942  0.000452  0.000000  0.000000  0.000000
       3    0.000452  0.000452  0.014797  0.000000  0.000000  0.000000
       4    0.000000  0.000000  0.000000  0.908940  0.000000  0.000000
       5    0.000000  0.000000  0.000000  0.000000  0.908940  0.000000
       6    0.000000  0.000000  0.000000  0.000000  0.000000  0.172412
-------------------------------------------------------------------------------

  Mechanical properties :

-------------------------------------------------------------------------------
  Convention :                    Reuss         Voigt         Hill
-------------------------------------------------------------------------------
  Bulk  Modulus (GPa)     =      15.31395      16.09653      15.70524
  Shear Modulus (GPa)     =       2.38081      10.31269       6.34675
-------------------------------------------------------------------------------
  Velocity S-wave (km/s)  =       1.01016       2.10239       1.64931
  Velocity P-wave (km/s)  =       2.81499       3.57664       3.21843
-------------------------------------------------------------------------------
  Compressibility (1/GPa) =    0.06529994
-------------------------------------------------------------------------------
  Stress axis :                     x             y             z
-------------------------------------------------------------------------------
  Youngs Moduli (GPa)     =      32.31814      32.31814      67.57908
-------------------------------------------------------------------------------
  Poissons Ratio (x)      =                     0.21316      -0.03056
  Poissons Ratio (y)      =       0.21316                    -0.03056
  Poissons Ratio (z)      =      -0.01462      -0.01462
-------------------------------------------------------------------------------


  Piezoelectric Strain Matrix: (Units=C/m**2)

-------------------------------------------------------------------------------
  Indices      1         2         3         4         5         6    
-------------------------------------------------------------------------------
       x     0.00000   0.00000   0.00000   0.00000   0.00000   0.00000
       y     0.00000   0.00000   0.00000   0.00000   0.00000   0.00000
       z     0.00000   0.00000   0.00000   0.00000   0.00000   0.00000
-------------------------------------------------------------------------------


  Piezoelectric Stress Matrix: (Units=10**-11 C/N)

-------------------------------------------------------------------------------
  Indices      1         2         3         4         5         6    
-------------------------------------------------------------------------------
       x     0.00000   0.00000   0.00000   0.00000   0.00000   0.00000
       y     0.00000   0.00000   0.00000   0.00000   0.00000   0.00000
       z     0.00000   0.00000   0.00000   0.00000   0.00000   0.00000
-------------------------------------------------------------------------------


  Static dielectric constant tensor : 

-------------------------------------------------------------------------------
              x         y         z
-------------------------------------------------------------------------------
       x     2.39994   0.00000   0.00000
       y     0.00000   2.39994   0.00000
       z     0.00000   0.00000   1.31500
--------------------------------------------------------------------------------

  High frequency dielectric constant tensor : 

-------------------------------------------------------------------------------
              x         y         z
-------------------------------------------------------------------------------
       x     1.34668   0.00000   0.00000
       y     0.00000   1.34668   0.00000
       z     0.00000   0.00000   1.34361
-------------------------------------------------------------------------------

  Static refractive indices : 

-------------------------------------------------------------------------------
    1 =    1.14674      2 =    1.54918      3 =    1.54918
-------------------------------------------------------------------------------

  High frequency refractive indices : 

-------------------------------------------------------------------------------
    1 =    1.15914      2 =    1.16046      3 =    1.16046
-------------------------------------------------------------------------------


  Time to end of optimisation =       0.0606 seconds


  Peak dynamic memory used =       0.59 MB 


  Timing analysis for GULP :

--------------------------------------------------------------------------------
  Task / Subroutine                                          Time (Seconds)
--------------------------------------------------------------------------------
  Calculation of reciprocal space energy and derivatives          0.0010
  Calculation of reciprocal space energy using symmetry           0.0053
  Calculation of real space energy and derivatives                0.0036
  Calculation of real space energy using symmetry                 0.0468
  Symmetry generation of equivalent positions                     0.0005
--------------------------------------------------------------------------------
  Total CPU time                                                  0.0606
--------------------------------------------------------------------------------


  CIF file written as perov.cif                                               


  Job Finished at 12:49.33 22nd February   2017                               

