********************************************************************************
*                       GENERAL UTILITY LATTICE PROGRAM                        *
*                                 Julian Gale                                  *
*                      Nanochemistry Research Institute                        *
*                           Department of Chemistry                            *
*                    Curtin University, Western Australia                      *
********************************************************************************
* Version = 4.3.2 * Last modified =  3rd March 2015                            *
********************************************************************************
*  optimise     - perform optimisation run                                     *
*  conp         - constant pressure calculation                                *
*  property     - calculate properties for final geometry                      *
********************************************************************************

  Job Started  at 12:49.37 22nd February   2017                               

  Number of CPUs =     1


  Total number of configurations input =   1

********************************************************************************
*  Input for Configuration =   1                                               *
********************************************************************************

  Formula = K2Zn2F6                                                     

  Number of irreducible atoms/shells =       6


  Total number atoms/shells =      16

  Dimensionality = 3               :  Bulk   


  Symmetry :

  Crystal family                   :  Tetragonal  
  Crystal class  (Groth - 1921)    :  Ditetragonal Dipyramidal             

  Space group (centrosymmetric)    :  P 4/M B M       

  Patterson group                  :  P 4/m m m

  Cartesian lattice vectors (Angstroms) :

        4.200000    0.000000    0.000000
        0.000000    4.200000    0.000000
        0.000000    0.000000    4.200000

  Cell parameters (Angstroms/Degrees):

  a =       4.2000    alpha =  90.0000
  b =       4.2000    beta  =  90.0000
  c =       4.2000    gamma =  90.0000

  Initial cell volume =          74.088000 Angs**3

  Temperature of configuration =  0.000     K 

  Pressure of configuration =         0.000 GPa 

  Fractional coordinates of asymmetric unit :

--------------------------------------------------------------------------------
   No.  Atomic       x           y          z         Charge      Occupancy
        Label      (Frac)      (Frac)     (Frac)        (e)         (Frac)  
--------------------------------------------------------------------------------
      1 K     c    0.000000    0.000000    0.000000     1.30000    1.000000    
      2 Zn    c    0.000000    0.500000    0.000000     2.10000    1.000000    
      3 F     c    0.000000    0.500000    0.500000     0.37800    1.000000    
      4 F     c    0.227100 *  0.727100    0.000000     0.37800    1.000000    
      5 F     s    0.000000    0.500000    0.500000    -1.51133    1.000000    
      6 F     s    0.227100 *  0.727100    0.000000    -1.51133    1.000000    
--------------------------------------------------------------------------------


  Constraints : 

--------------------------------------------------------------------------------
  Constraint no.      Unconstrained     Constrained    Coefficient    Offset
                         Variable         Variable
--------------------------------------------------------------------------------
           1              Strain 1        Strain 2       1.00000      0.0000
           2                 4 x             4 y         1.00000      0.5000
           3                 6 x             6 y         1.00000      0.5000
--------------------------------------------------------------------------------


********************************************************************************
*  General input information                                                   *
********************************************************************************

  Species output for all configurations : 

--------------------------------------------------------------------------------
  Species    Type    Atomic    Atomic    Charge       Radii (Angs)     Library
                     Number     Mass       (e)     Cova   Ionic  VDW   Symbol
--------------------------------------------------------------------------------
    K        Core       19      39.10   1.300000   1.330  0.000  2.800          
    Zn       Core       30      65.39   2.100000   1.450  0.000  2.160          
    F        Core        9      19.00   0.378000   0.710  0.000  1.300          
    F        Shell       9       0.00  -1.511333   0.710  0.000  1.300          
--------------------------------------------------------------------------------


  Lattice summation method               =    Ewald          (3-D)
                                         =    Parry          (2-D)
                                         =    Saunders et al (1-D)
  Accuracy factor for lattice sums       =   12.000


  Time limit = Infinity

  Maximum range for interatomic potentials =    100000.000000 Angstroms

  General interatomic potentials :

--------------------------------------------------------------------------------
Atom  Types   Potential         A         B         C         D     Cutoffs(Ang)
  1     2                                                            Min    Max 
--------------------------------------------------------------------------------
K    c K    c Buckingham    0.219E+04 0.192      0.00      0.00     0.000 10.000
Zn   c F    s Buckingham    0.148E+04 0.266      0.00      0.00     0.000 10.000
F    s F    s Buckingham     912.     0.271      13.8      0.00     0.000 10.000
K    c F    s Buckingham    0.352E+04 0.267      0.00      0.00     0.000 10.000
F    c F    s Spring (c-s)   29.3      0.00      0.00      0.00     0.000  0.800
--------------------------------------------------------------------------------

********************************************************************************
*  Output for configuration   1                                                *
********************************************************************************


  Components of energy : 

--------------------------------------------------------------------------------
  Interatomic potentials     =         162.45946484 eV
  Monopole - monopole (real) =         -58.08319574 eV
  Monopole - monopole (recip)=         -82.80006498 eV
  Monopole - monopole (total)=        -140.88326072 eV
--------------------------------------------------------------------------------
  Total lattice energy       =          21.57620412 eV
--------------------------------------------------------------------------------
  Total lattice energy       =            2081.7739 kJ/(mole unit cells)
--------------------------------------------------------------------------------


  Number of variables =        4

  Maximum number of calculations  =          1000
  Maximum Hessian update interval =            10
  Maximum step size               =   1.000000000
  Maximum parameter tolerance     =   0.000010000
  Maximum function  tolerance     =   0.000010000
  Maximum gradient  tolerance     =   0.001000000
  Maximum gradient  component     =   0.010000000

  Symmetry constrained optimisation

  Symmetry used for second derivatives

  Cell parameters to be optimised using strains

  Newton-Raphson optimiser to be used

  BFGS hessian update to be used

  Start of bulk optimisation :

  Cycle:      0 Energy:        21.576204  Gnorm:    200.978630  CPU:    0.005
  ** Hessian calculated **
  Cycle:      1 Energy:       -92.256722  Gnorm:     28.010615  CPU:    0.012
  ** Hessian calculated **
  Cycle:      2 Energy:       -93.819634  Gnorm:      6.280529  CPU:    0.018
  Cycle:      3 Energy:       -93.933454  Gnorm:      2.141689  CPU:    0.021
  Cycle:      4 Energy:       -93.958853  Gnorm:      0.514472  CPU:    0.025
  Cycle:      5 Energy:       -93.963320  Gnorm:      0.319522  CPU:    0.028
  Cycle:      6 Energy:       -93.963869  Gnorm:      0.035432  CPU:    0.032
  Cycle:      7 Energy:       -93.963891  Gnorm:      0.031012  CPU:    0.035
  Cycle:      8 Energy:       -93.963894  Gnorm:      0.003016  CPU:    0.038
  Cycle:      9 Energy:       -93.963894  Gnorm:      0.001542  CPU:    0.041


  **** Optimisation achieved ****


  Final energy =     -93.96389420 eV
  Final Gnorm  =       0.00020900

  Components of energy : 

--------------------------------------------------------------------------------
  Interatomic potentials     =          13.68116514 eV
  Monopole - monopole (real) =         -26.34012575 eV
  Monopole - monopole (recip)=         -81.30493359 eV
  Monopole - monopole (total)=        -107.64505934 eV
--------------------------------------------------------------------------------
  Total lattice energy       =         -93.96389420 eV
--------------------------------------------------------------------------------
  Total lattice energy       =           -9066.0794 kJ/(mole unit cells)
--------------------------------------------------------------------------------

  Final asymmetric unit coordinates :

--------------------------------------------------------------------------------
   No.  Atomic        x           y           z         Radius
        Label       (Frac)      (Frac)      (Frac)       (Angs) 
--------------------------------------------------------------------------------
     1  K     c     0.000000    0.000000    0.000000    0.000000
     2  Zn    c     0.000000    0.500000    0.000000    0.000000
     3  F     c     0.000000    0.500000    0.500000    0.000000
     4  F     c     0.214658    0.714658    0.000000    0.000000
     5  F     s     0.000000    0.500000    0.500000    0.000000
     6  F     s     0.211526    0.711526    0.000000    0.000000
--------------------------------------------------------------------------------

  Final Cartesian lattice vectors (Angstroms) :

        6.552563    0.000000    0.000000
        0.000000    6.552563    0.000000
        0.000000    0.000000    3.737516


  Final cell parameters and derivatives :

--------------------------------------------------------------------------------
       a            6.552563 Angstrom     dE/de1(xx)     0.000436 eV/strain
       b            6.552563 Angstrom     dE/de2(yy)     0.000000 eV/strain
       c            3.737516 Angstrom     dE/de3(zz)    -0.000095 eV/strain
       alpha       90.000000 Degrees      dE/de4(yz)     0.000000 eV/strain
       beta        90.000000 Degrees      dE/de5(xz)     0.000000 eV/strain
       gamma       90.000000 Degrees      dE/de6(xy)     0.000000 eV/strain
--------------------------------------------------------------------------------

  Primitive cell volume =           160.474279 Angs**3

  Density of cell =      3.342152 g/cm**3

  Non-primitive cell volume =           160.474279 Angs**3


  Final internal derivatives :

--------------------------------------------------------------------------------
   No.  Atomic          a             b             c           Radius
        Label          (eV)          (eV)          (eV)        (eV/Angs)
--------------------------------------------------------------------------------
      1 K     c       0.000000      0.000000      0.000000      0.000000
      2 Zn    c       0.000000      0.000000      0.000000      0.000000
      3 F     c       0.000000      0.000000      0.000000      0.000000
      4 F     c       0.000162      0.000000      0.000000      0.000000
      5 F     s       0.000000      0.000000      0.000000      0.000000
      6 F     s      -0.000688      0.000000      0.000000      0.000000
--------------------------------------------------------------------------------
  Maximum abs         0.000688      0.000000      0.000000      0.000000
--------------------------------------------------------------------------------


  Born effective charge tensors : 

-------------------------------------------------------------------------------
  Atom             x           y             z
-------------------------------------------------------------------------------
   1 K     x       1.0856     -0.0022      0.0000
           y       0.0022      1.0856      0.0000
           z       0.0000      0.0000      1.2860
-------------------------------------------------------------------------------
   2 Zn    x       1.8728     -0.1988      0.0000
           y      -0.1988      1.8728      0.0000
           z       0.0000      0.0000      1.4706
-------------------------------------------------------------------------------
   3 F     x      -0.9897      0.0119      0.0000
           y       0.0119     -0.9897      0.0000
           z       0.0000      0.0000     -0.8234
-------------------------------------------------------------------------------
   4 F     x      -0.9843     -0.2224      0.0000
           y      -0.2224     -0.9843      0.0000
           z       0.0000      0.0000     -0.9666
-------------------------------------------------------------------------------




  Elastic Constant Matrix: (Units=GPa)

-------------------------------------------------------------------------------
  Indices      1         2         3         4         5         6    
-------------------------------------------------------------------------------
       1    129.6673   29.3765   -4.6761    0.0000    0.0000    0.0000
       2     29.3765  129.6673   -4.6761    0.0000    0.0000    0.0000
       3     -4.6761   -4.6761  171.5392    0.0000    0.0000    0.0000
       4      0.0000    0.0000    0.0000    4.2317    0.0000    0.0000
       5      0.0000    0.0000    0.0000    0.0000    4.2317    0.0000
       6      0.0000    0.0000    0.0000    0.0000    0.0000   31.6584
-------------------------------------------------------------------------------


  Elastic Compliance Matrix: (Units=1/GPa)

-------------------------------------------------------------------------------
  Indices      1         2         3         4         5         6    
-------------------------------------------------------------------------------
       1    0.008134 -0.001837  0.000172  0.000000  0.000000  0.000000
       2   -0.001837  0.008134  0.000172  0.000000  0.000000  0.000000
       3    0.000172  0.000172  0.005839  0.000000  0.000000  0.000000
       4    0.000000  0.000000  0.000000  0.236312  0.000000  0.000000
       5    0.000000  0.000000  0.000000  0.000000  0.236312  0.000000
       6    0.000000  0.000000  0.000000  0.000000  0.000000  0.031587
-------------------------------------------------------------------------------

  Mechanical properties :

-------------------------------------------------------------------------------
  Convention :                    Reuss         Voigt         Hill
-------------------------------------------------------------------------------
  Bulk  Modulus (GPa)     =      52.29862      52.32471      52.31166
  Shear Modulus (GPa)     =       9.33396      35.41434      22.37415
-------------------------------------------------------------------------------
  Velocity S-wave (km/s)  =       1.67117       3.25519       2.58738
  Velocity P-wave (km/s)  =       4.40135       5.45750       4.95763
-------------------------------------------------------------------------------
  Compressibility (1/GPa) =    0.01912096
-------------------------------------------------------------------------------
  Stress axis :                     x             y             z
-------------------------------------------------------------------------------
  Youngs Moduli (GPa)     =     122.93567     122.93567     171.26426
-------------------------------------------------------------------------------
  Poissons Ratio (x)      =                     0.22579      -0.02940
  Poissons Ratio (y)      =       0.22579                    -0.02940
  Poissons Ratio (z)      =      -0.02110      -0.02110
-------------------------------------------------------------------------------


  Piezoelectric Strain Matrix: (Units=C/m**2)

-------------------------------------------------------------------------------
  Indices      1         2         3         4         5         6    
-------------------------------------------------------------------------------
       x     0.00000   0.00000   0.00000   0.00000   0.00000   0.00000
       y     0.00000   0.00000   0.00000   0.00000   0.00000   0.00000
       z     0.00000   0.00000   0.00000   0.00000   0.00000   0.00000
-------------------------------------------------------------------------------


  Piezoelectric Stress Matrix: (Units=10**-11 C/N)

-------------------------------------------------------------------------------
  Indices      1         2         3         4         5         6    
-------------------------------------------------------------------------------
       x     0.00000   0.00000   0.00000   0.00000   0.00000   0.00000
       y     0.00000   0.00000   0.00000   0.00000   0.00000   0.00000
       z     0.00000   0.00000   0.00000   0.00000   0.00000   0.00000
-------------------------------------------------------------------------------


  Static dielectric constant tensor : 

-------------------------------------------------------------------------------
              x         y         z
-------------------------------------------------------------------------------
       x     1.45681   0.00000   0.00000
       y     0.00000   1.45681   0.00000
       z     0.00000   0.00000   0.77497
--------------------------------------------------------------------------------

  High frequency dielectric constant tensor : 

-------------------------------------------------------------------------------
              x         y         z
-------------------------------------------------------------------------------
       x     1.49816   0.00000   0.00000
       y     0.00000   1.49816   0.00000
       z     0.00000   0.00000   1.47778
-------------------------------------------------------------------------------

  Static refractive indices : 

-------------------------------------------------------------------------------
    1 =    0.88033      2 =    1.20698      3 =    1.20698
-------------------------------------------------------------------------------

  High frequency refractive indices : 

-------------------------------------------------------------------------------
    1 =    1.21564      2 =    1.22399      3 =    1.22399
-------------------------------------------------------------------------------


  Time to end of optimisation =       0.0495 seconds


  Peak dynamic memory used =       0.59 MB 


  Timing analysis for GULP :

--------------------------------------------------------------------------------
  Task / Subroutine                                          Time (Seconds)
--------------------------------------------------------------------------------
  Calculation of reciprocal space energy and derivatives          0.0009
  Calculation of reciprocal space energy using symmetry           0.0041
  Calculation of real space energy and derivatives                0.0037
  Calculation of real space energy using symmetry                 0.0371
  Symmetry generation of equivalent positions                     0.0004
--------------------------------------------------------------------------------
  Total CPU time                                                  0.0495
--------------------------------------------------------------------------------


  CIF file written as perov.cif                                               


  Job Finished at 12:49.37 22nd February   2017                               

