********************************************************************************
*                       GENERAL UTILITY LATTICE PROGRAM                        *
*                                 Julian Gale                                  *
*                      Nanochemistry Research Institute                        *
*                           Department of Chemistry                            *
*                    Curtin University, Western Australia                      *
********************************************************************************
* Version = 4.3.2 * Last modified =  3rd March 2015                            *
********************************************************************************
*  optimise     - perform optimisation run                                     *
*  conp         - constant pressure calculation                                *
*  property     - calculate properties for final geometry                      *
********************************************************************************

  Job Started  at 12:49.37 22nd February   2017                               

  Number of CPUs =     1


  Total number of configurations input =   1

********************************************************************************
*  Input for Configuration =   1                                               *
********************************************************************************

  Formula = K2Zn2F6                                                     

  Number of irreducible atoms/shells =       6


  Total number atoms/shells =      16

  Dimensionality = 3               :  Bulk   


  Symmetry :

  Crystal family                   :  Tetragonal  
  Crystal class  (Groth - 1921)    :  Ditetragonal Dipyramidal             

  Space group (centrosymmetric)    :  P 4/M B M       

  Patterson group                  :  P 4/m m m

  Cartesian lattice vectors (Angstroms) :

        4.200000    0.000000    0.000000
        0.000000    4.200000    0.000000
        0.000000    0.000000    4.200000

  Cell parameters (Angstroms/Degrees):

  a =       4.2000    alpha =  90.0000
  b =       4.2000    beta  =  90.0000
  c =       4.2000    gamma =  90.0000

  Initial cell volume =          74.088000 Angs**3

  Temperature of configuration =  0.000     K 

  Pressure of configuration =         0.000 GPa 

  Fractional coordinates of asymmetric unit :

--------------------------------------------------------------------------------
   No.  Atomic       x           y          z         Charge      Occupancy
        Label      (Frac)      (Frac)     (Frac)        (e)         (Frac)  
--------------------------------------------------------------------------------
      1 K     c    0.000000    0.000000    0.000000     1.30000    1.000000    
      2 Zn    c    0.000000    0.500000    0.000000     1.50000    1.000000    
      3 F     c    0.000000    0.500000    0.500000     0.37800    1.000000    
      4 F     c    0.227100 *  0.727100    0.000000     0.37800    1.000000    
      5 F     s    0.000000    0.500000    0.500000    -1.31133    1.000000    
      6 F     s    0.227100 *  0.727100    0.000000    -1.31133    1.000000    
--------------------------------------------------------------------------------


  Constraints : 

--------------------------------------------------------------------------------
  Constraint no.      Unconstrained     Constrained    Coefficient    Offset
                         Variable         Variable
--------------------------------------------------------------------------------
           1              Strain 1        Strain 2       1.00000      0.0000
           2                 4 x             4 y         1.00000      0.5000
           3                 6 x             6 y         1.00000      0.5000
--------------------------------------------------------------------------------


********************************************************************************
*  General input information                                                   *
********************************************************************************

  Species output for all configurations : 

--------------------------------------------------------------------------------
  Species    Type    Atomic    Atomic    Charge       Radii (Angs)     Library
                     Number     Mass       (e)     Cova   Ionic  VDW   Symbol
--------------------------------------------------------------------------------
    K        Core       19      39.10   1.300000   1.330  0.000  2.800          
    Zn       Core       30      65.39   1.500000   1.450  0.000  2.160          
    F        Core        9      19.00   0.378000   0.710  0.000  1.300          
    F        Shell       9       0.00  -1.311333   0.710  0.000  1.300          
--------------------------------------------------------------------------------


  Lattice summation method               =    Ewald          (3-D)
                                         =    Parry          (2-D)
                                         =    Saunders et al (1-D)
  Accuracy factor for lattice sums       =   12.000


  Time limit = Infinity

  Maximum range for interatomic potentials =    100000.000000 Angstroms

  General interatomic potentials :

--------------------------------------------------------------------------------
Atom  Types   Potential         A         B         C         D     Cutoffs(Ang)
  1     2                                                            Min    Max 
--------------------------------------------------------------------------------
K    c K    c Buckingham    0.219E+04 0.192      0.00      0.00     0.000 10.000
Zn   c F    s Buckingham    0.148E+04 0.266      0.00      0.00     0.000 10.000
F    s F    s Buckingham     912.     0.271      13.8      0.00     0.000 10.000
K    c F    s Buckingham    0.352E+04 0.267      0.00      0.00     0.000 10.000
F    c F    s Spring (c-s)   22.0      0.00      0.00      0.00     0.000  0.800
--------------------------------------------------------------------------------

********************************************************************************
*  Output for configuration   1                                                *
********************************************************************************


  Components of energy : 

--------------------------------------------------------------------------------
  Interatomic potentials     =         162.45946484 eV
  Monopole - monopole (real) =         -38.34941231 eV
  Monopole - monopole (recip)=         -54.43007826 eV
  Monopole - monopole (total)=         -92.77949057 eV
--------------------------------------------------------------------------------
  Total lattice energy       =          69.67997427 eV
--------------------------------------------------------------------------------
  Total lattice energy       =            6723.0524 kJ/(mole unit cells)
--------------------------------------------------------------------------------


  Number of variables =        4

  Maximum number of calculations  =          1000
  Maximum Hessian update interval =            10
  Maximum step size               =   1.000000000
  Maximum parameter tolerance     =   0.000010000
  Maximum function  tolerance     =   0.000010000
  Maximum gradient  tolerance     =   0.001000000
  Maximum gradient  component     =   0.010000000

  Symmetry constrained optimisation

  Symmetry used for second derivatives

  Cell parameters to be optimised using strains

  Newton-Raphson optimiser to be used

  BFGS hessian update to be used

  Start of bulk optimisation :

  Cycle:      0 Energy:        69.679974  Gnorm:    213.425495  CPU:    0.005
  ** Hessian calculated **
  Cycle:      1 Energy:       -56.821828  Gnorm:     20.390904  CPU:    0.012
  ** Hessian calculated **
  Cycle:      2 Energy:       -57.419945  Gnorm:      6.244301  CPU:    0.017
  Cycle:      3 Energy:       -57.488507  Gnorm:      0.116274  CPU:    0.021
  Cycle:      4 Energy:       -57.488638  Gnorm:      0.025443  CPU:    0.024
  Cycle:      5 Energy:       -57.488686  Gnorm:      0.020807  CPU:    0.027
  Cycle:      6 Energy:       -57.488688  Gnorm:      0.001595  CPU:    0.030


  **** Optimisation achieved ****


  Final energy =     -57.48868780 eV
  Final Gnorm  =       0.00000722

  Components of energy : 

--------------------------------------------------------------------------------
  Interatomic potentials     =           7.39841563 eV
  Monopole - monopole (real) =         -23.89275150 eV
  Monopole - monopole (recip)=         -40.99435193 eV
  Monopole - monopole (total)=         -64.88710343 eV
--------------------------------------------------------------------------------
  Total lattice energy       =         -57.48868780 eV
--------------------------------------------------------------------------------
  Total lattice energy       =           -5546.7796 kJ/(mole unit cells)
--------------------------------------------------------------------------------

  Final asymmetric unit coordinates :

--------------------------------------------------------------------------------
   No.  Atomic        x           y           z         Radius
        Label       (Frac)      (Frac)      (Frac)       (Angs) 
--------------------------------------------------------------------------------
     1  K     c     0.000000    0.000000    0.000000    0.000000
     2  Zn    c     0.000000    0.500000    0.000000    0.000000
     3  F     c     0.000000    0.500000    0.500000    0.000000
     4  F     c     0.250000    0.750000    0.000000    0.000000
     5  F     s     0.000000    0.500000    0.500000    0.000000
     6  F     s     0.250000    0.750000    0.000000    0.000000
--------------------------------------------------------------------------------

  Final Cartesian lattice vectors (Angstroms) :

        6.789178    0.000000    0.000000
        0.000000    6.789178    0.000000
        0.000000    0.000000    4.118518


  Final cell parameters and derivatives :

--------------------------------------------------------------------------------
       a            6.789178 Angstrom     dE/de1(xx)    -0.000001 eV/strain
       b            6.789178 Angstrom     dE/de2(yy)     0.000000 eV/strain
       c            4.118518 Angstrom     dE/de3(zz)     0.000000 eV/strain
       alpha       90.000000 Degrees      dE/de4(yz)     0.000000 eV/strain
       beta        90.000000 Degrees      dE/de5(xz)     0.000000 eV/strain
       gamma       90.000000 Degrees      dE/de6(xy)     0.000000 eV/strain
--------------------------------------------------------------------------------

  Primitive cell volume =           189.834583 Angs**3

  Density of cell =      2.825246 g/cm**3

  Non-primitive cell volume =           189.834583 Angs**3


  Final internal derivatives :

--------------------------------------------------------------------------------
   No.  Atomic          a             b             c           Radius
        Label          (eV)          (eV)          (eV)        (eV/Angs)
--------------------------------------------------------------------------------
      1 K     c       0.000000      0.000000      0.000000      0.000000
      2 Zn    c       0.000000      0.000000      0.000000      0.000000
      3 F     c       0.000000      0.000000      0.000000      0.000000
      4 F     c       0.000024      0.000000      0.000000      0.000000
      5 F     s       0.000000      0.000000      0.000000      0.000000
      6 F     s      -0.000016      0.000000      0.000000      0.000000
--------------------------------------------------------------------------------
  Maximum abs         0.000024      0.000000      0.000000      0.000000
--------------------------------------------------------------------------------


  Born effective charge tensors : 

-------------------------------------------------------------------------------
  Atom             x           y             z
-------------------------------------------------------------------------------
   1 K     x       1.0791      0.0000      0.0000
           y       0.0000      1.0791      0.0000
           z       0.0000      0.0000      1.2672
-------------------------------------------------------------------------------
   2 Zn    x       1.5009      0.0000      0.0000
           y       0.0000      1.5009      0.0000
           z       0.0000      0.0000      1.0613
-------------------------------------------------------------------------------
   3 F     x      -0.8870      0.0000      0.0000
           y       0.0000     -0.8870      0.0000
           z       0.0000      0.0000     -0.7237
-------------------------------------------------------------------------------
   4 F     x      -0.8465     -0.2194      0.0000
           y      -0.2194     -0.8465      0.0000
           z       0.0000      0.0000     -0.8023
-------------------------------------------------------------------------------




  Elastic Constant Matrix: (Units=GPa)

-------------------------------------------------------------------------------
  Indices      1         2         3         4         5         6    
-------------------------------------------------------------------------------
       1     94.2658   38.2155    2.8169    0.0000    0.0000    0.0000
       2     38.2155   94.2658    2.8169    0.0000    0.0000    0.0000
       3      2.8169    2.8169   94.9447    0.0000    0.0000    0.0000
       4      0.0000    0.0000    0.0000    2.8169    0.0000    0.0000
       5      0.0000    0.0000    0.0000    0.0000    2.8169    0.0000
       6      0.0000    0.0000    0.0000    0.0000    0.0000   38.2155
-------------------------------------------------------------------------------


  Elastic Compliance Matrix: (Units=1/GPa)

-------------------------------------------------------------------------------
  Indices      1         2         3         4         5         6    
-------------------------------------------------------------------------------
       1    0.012699 -0.005142 -0.000224  0.000000  0.000000  0.000000
       2   -0.005142  0.012699 -0.000224  0.000000  0.000000  0.000000
       3   -0.000224 -0.000224  0.010546  0.000000  0.000000  0.000000
       4    0.000000  0.000000  0.000000  0.354996  0.000000  0.000000
       5    0.000000  0.000000  0.000000  0.000000  0.354996  0.000000
       6    0.000000  0.000000  0.000000  0.000000  0.000000  0.026167
-------------------------------------------------------------------------------

  Mechanical properties :

-------------------------------------------------------------------------------
  Convention :                    Reuss         Voigt         Hill
-------------------------------------------------------------------------------
  Bulk  Modulus (GPa)     =      40.38060      41.24167      40.81113
  Shear Modulus (GPa)     =       6.31681      24.74500      15.53090
-------------------------------------------------------------------------------
  Velocity S-wave (km/s)  =       1.49527       2.95948       2.34461
  Velocity P-wave (km/s)  =       4.15619       5.12597       4.66634
-------------------------------------------------------------------------------
  Compressibility (1/GPa) =    0.02476437
-------------------------------------------------------------------------------
  Stress axis :                     x             y             z
-------------------------------------------------------------------------------
  Youngs Moduli (GPa)     =      78.74358      78.74358      94.82488
-------------------------------------------------------------------------------
  Poissons Ratio (x)      =                     0.40487       0.02126
  Poissons Ratio (y)      =       0.40487                     0.02126
  Poissons Ratio (z)      =       0.01766       0.01766
-------------------------------------------------------------------------------


  Piezoelectric Strain Matrix: (Units=C/m**2)

-------------------------------------------------------------------------------
  Indices      1         2         3         4         5         6    
-------------------------------------------------------------------------------
       x     0.00000   0.00000   0.00000   0.00000   0.00000   0.00000
       y     0.00000   0.00000   0.00000   0.00000   0.00000   0.00000
       z     0.00000   0.00000   0.00000   0.00000   0.00000   0.00000
-------------------------------------------------------------------------------


  Piezoelectric Stress Matrix: (Units=10**-11 C/N)

-------------------------------------------------------------------------------
  Indices      1         2         3         4         5         6    
-------------------------------------------------------------------------------
       x     0.00000   0.00000   0.00000   0.00000   0.00000   0.00000
       y     0.00000   0.00000   0.00000   0.00000   0.00000   0.00000
       z     0.00000   0.00000   0.00000   0.00000   0.00000   0.00000
-------------------------------------------------------------------------------


  Static dielectric constant tensor : 

-------------------------------------------------------------------------------
              x         y         z
-------------------------------------------------------------------------------
       x   -12.63427   0.00000   0.00000
       y     0.00000 -12.63427   0.00000
       z     0.00000   0.00000   0.45319
--------------------------------------------------------------------------------

  High frequency dielectric constant tensor : 

-------------------------------------------------------------------------------
              x         y         z
-------------------------------------------------------------------------------
       x     1.44112   0.00000   0.00000
       y     0.00000   1.44112   0.00000
       z     0.00000   0.00000   1.41121
-------------------------------------------------------------------------------

  Static refractive indices : 

-------------------------------------------------------------------------------
    1 =   -3.55447      2 =   -3.55447      3 =    0.67319
-------------------------------------------------------------------------------

  High frequency refractive indices : 

-------------------------------------------------------------------------------
    1 =    1.18794      2 =    1.20046      3 =    1.20046
-------------------------------------------------------------------------------


  Time to end of optimisation =       0.0386 seconds


  Peak dynamic memory used =       0.59 MB 


  Timing analysis for GULP :

--------------------------------------------------------------------------------
  Task / Subroutine                                          Time (Seconds)
--------------------------------------------------------------------------------
  Calculation of reciprocal space energy and derivatives          0.0008
  Calculation of reciprocal space energy using symmetry           0.0029
  Calculation of real space energy and derivatives                0.0038
  Calculation of real space energy using symmetry                 0.0273
  Symmetry generation of equivalent positions                     0.0004
--------------------------------------------------------------------------------
  Total CPU time                                                  0.0387
--------------------------------------------------------------------------------


  CIF file written as perov.cif                                               


  Job Finished at 12:49.37 22nd February   2017                               

