********************************************************************************
*                       GENERAL UTILITY LATTICE PROGRAM                        *
*                                 Julian Gale                                  *
*                      Nanochemistry Research Institute                        *
*                           Department of Chemistry                            *
*                    Curtin University, Western Australia                      *
********************************************************************************
* Version = 4.3.2 * Last modified =  3rd March 2015                            *
********************************************************************************
*  optimise     - perform optimisation run                                     *
*  conp         - constant pressure calculation                                *
*  property     - calculate properties for final geometry                      *
********************************************************************************

  Job Started  at 12:49.37 22nd February   2017                               

  Number of CPUs =     1


  Total number of configurations input =   1

********************************************************************************
*  Input for Configuration =   1                                               *
********************************************************************************

  Formula = K2Zn2F6                                                     

  Number of irreducible atoms/shells =       6


  Total number atoms/shells =      16

  Dimensionality = 3               :  Bulk   


  Symmetry :

  Crystal family                   :  Tetragonal  
  Crystal class  (Groth - 1921)    :  Ditetragonal Dipyramidal             

  Space group (centrosymmetric)    :  P 4/M B M       

  Patterson group                  :  P 4/m m m

  Cartesian lattice vectors (Angstroms) :

        4.200000    0.000000    0.000000
        0.000000    4.200000    0.000000
        0.000000    0.000000    4.200000

  Cell parameters (Angstroms/Degrees):

  a =       4.2000    alpha =  90.0000
  b =       4.2000    beta  =  90.0000
  c =       4.2000    gamma =  90.0000

  Initial cell volume =          74.088000 Angs**3

  Temperature of configuration =  0.000     K 

  Pressure of configuration =         0.000 GPa 

  Fractional coordinates of asymmetric unit :

--------------------------------------------------------------------------------
   No.  Atomic       x           y          z         Charge      Occupancy
        Label      (Frac)      (Frac)     (Frac)        (e)         (Frac)  
--------------------------------------------------------------------------------
      1 K     c    0.000000    0.000000    0.000000     1.20000    1.000000    
      2 Zn    c    0.000000    0.500000    0.000000     2.20000    1.000000    
      3 F     c    0.000000    0.500000    0.500000     0.37800    1.000000    
      4 F     c    0.227100 *  0.727100    0.000000     0.37800    1.000000    
      5 F     s    0.000000    0.500000    0.500000    -1.51133    1.000000    
      6 F     s    0.227100 *  0.727100    0.000000    -1.51133    1.000000    
--------------------------------------------------------------------------------


  Constraints : 

--------------------------------------------------------------------------------
  Constraint no.      Unconstrained     Constrained    Coefficient    Offset
                         Variable         Variable
--------------------------------------------------------------------------------
           1              Strain 1        Strain 2       1.00000      0.0000
           2                 4 x             4 y         1.00000      0.5000
           3                 6 x             6 y         1.00000      0.5000
--------------------------------------------------------------------------------


********************************************************************************
*  General input information                                                   *
********************************************************************************

  Species output for all configurations : 

--------------------------------------------------------------------------------
  Species    Type    Atomic    Atomic    Charge       Radii (Angs)     Library
                     Number     Mass       (e)     Cova   Ionic  VDW   Symbol
--------------------------------------------------------------------------------
    K        Core       19      39.10   1.200000   1.330  0.000  2.800          
    Zn       Core       30      65.39   2.200000   1.450  0.000  2.160          
    F        Core        9      19.00   0.378000   0.710  0.000  1.300          
    F        Shell       9       0.00  -1.511333   0.710  0.000  1.300          
--------------------------------------------------------------------------------


  Lattice summation method               =    Ewald          (3-D)
                                         =    Parry          (2-D)
                                         =    Saunders et al (1-D)
  Accuracy factor for lattice sums       =   12.000


  Time limit = Infinity

  Maximum range for interatomic potentials =    100000.000000 Angstroms

  General interatomic potentials :

--------------------------------------------------------------------------------
Atom  Types   Potential         A         B         C         D     Cutoffs(Ang)
  1     2                                                            Min    Max 
--------------------------------------------------------------------------------
K    c K    c Buckingham    0.219E+04 0.192      0.00      0.00     0.000 10.000
Zn   c F    s Buckingham    0.148E+04 0.266      0.00      0.00     0.000 10.000
F    s F    s Buckingham     912.     0.271      13.8      0.00     0.000 10.000
K    c F    s Buckingham    0.352E+04 0.267      0.00      0.00     0.000 10.000
F    c F    s Spring (c-s)   29.3      0.00      0.00      0.00     0.000  0.800
--------------------------------------------------------------------------------

********************************************************************************
*  Output for configuration   1                                                *
********************************************************************************


  Components of energy : 

--------------------------------------------------------------------------------
  Interatomic potentials     =         162.45946484 eV
  Monopole - monopole (real) =         -58.83384623 eV
  Monopole - monopole (recip)=         -84.35227106 eV
  Monopole - monopole (total)=        -143.18611729 eV
--------------------------------------------------------------------------------
  Total lattice energy       =          19.27334756 eV
--------------------------------------------------------------------------------
  Total lattice energy       =            1859.5834 kJ/(mole unit cells)
--------------------------------------------------------------------------------


  Number of variables =        4

  Maximum number of calculations  =          1000
  Maximum Hessian update interval =            10
  Maximum step size               =   1.000000000
  Maximum parameter tolerance     =   0.000010000
  Maximum function  tolerance     =   0.000010000
  Maximum gradient  tolerance     =   0.001000000
  Maximum gradient  component     =   0.010000000

  Symmetry constrained optimisation

  Symmetry used for second derivatives

  Cell parameters to be optimised using strains

  Newton-Raphson optimiser to be used

  BFGS hessian update to be used

  Start of bulk optimisation :

  Cycle:      0 Energy:        19.273348  Gnorm:    200.083991  CPU:    0.005
  ** Hessian calculated **
  Cycle:      1 Energy:       -93.923082  Gnorm:     29.714297  CPU:    0.012
  ** Hessian calculated **
  Cycle:      2 Energy:       -95.478620  Gnorm:     18.843053  CPU:    0.017
  Cycle:      3 Energy:       -96.165490  Gnorm:     11.063731  CPU:    0.020
  Cycle:      4 Energy:       -96.365644  Gnorm:      4.347232  CPU:    0.024
  Cycle:      5 Energy:       -96.386666  Gnorm:      0.534061  CPU:    0.027
  Cycle:      6 Energy:       -96.388265  Gnorm:      0.170466  CPU:    0.030
  Cycle:      7 Energy:       -96.388377  Gnorm:      0.057003  CPU:    0.033
  Cycle:      8 Energy:       -96.388383  Gnorm:      0.007614  CPU:    0.037
  Cycle:      9 Energy:       -96.388384  Gnorm:      0.002748  CPU:    0.040


  **** Optimisation achieved ****


  Final energy =     -96.38838371 eV
  Final Gnorm  =       0.00037808

  Components of energy : 

--------------------------------------------------------------------------------
  Interatomic potentials     =          14.41016451 eV
  Monopole - monopole (real) =         -28.53875016 eV
  Monopole - monopole (recip)=         -82.25979807 eV
  Monopole - monopole (total)=        -110.79854822 eV
--------------------------------------------------------------------------------
  Total lattice energy       =         -96.38838371 eV
--------------------------------------------------------------------------------
  Total lattice energy       =           -9300.0056 kJ/(mole unit cells)
--------------------------------------------------------------------------------

  Final asymmetric unit coordinates :

--------------------------------------------------------------------------------
   No.  Atomic        x           y           z         Radius
        Label       (Frac)      (Frac)      (Frac)       (Angs) 
--------------------------------------------------------------------------------
     1  K     c     0.000000    0.000000    0.000000    0.000000
     2  Zn    c     0.000000    0.500000    0.000000    0.000000
     3  F     c     0.000000    0.500000    0.500000    0.000000
     4  F     c     0.207183    0.707183    0.000000    0.000000
     5  F     s     0.000000    0.500000    0.500000    0.000000
     6  F     s     0.203073    0.703073    0.000000    0.000000
--------------------------------------------------------------------------------

  Final Cartesian lattice vectors (Angstroms) :

        6.614246    0.000000    0.000000
        0.000000    6.614246    0.000000
        0.000000    0.000000    3.706996


  Final cell parameters and derivatives :

--------------------------------------------------------------------------------
       a            6.614246 Angstrom     dE/de1(xx)     0.000367 eV/strain
       b            6.614246 Angstrom     dE/de2(yy)     0.000000 eV/strain
       c            3.706996 Angstrom     dE/de3(zz)    -0.000033 eV/strain
       alpha       90.000000 Degrees      dE/de4(yz)     0.000000 eV/strain
       beta        90.000000 Degrees      dE/de5(xz)     0.000000 eV/strain
       gamma       90.000000 Degrees      dE/de6(xy)     0.000000 eV/strain
--------------------------------------------------------------------------------

  Primitive cell volume =           162.174592 Angs**3

  Density of cell =      3.307111 g/cm**3

  Non-primitive cell volume =           162.174592 Angs**3


  Final internal derivatives :

--------------------------------------------------------------------------------
   No.  Atomic          a             b             c           Radius
        Label          (eV)          (eV)          (eV)        (eV/Angs)
--------------------------------------------------------------------------------
      1 K     c       0.000000      0.000000      0.000000      0.000000
      2 Zn    c       0.000000      0.000000      0.000000      0.000000
      3 F     c       0.000000      0.000000      0.000000      0.000000
      4 F     c       0.000620      0.000000      0.000000      0.000000
      5 F     s       0.000000      0.000000      0.000000      0.000000
      6 F     s      -0.001329      0.000000      0.000000      0.000000
--------------------------------------------------------------------------------
  Maximum abs         0.001329      0.000000      0.000000      0.000000
--------------------------------------------------------------------------------


  Born effective charge tensors : 

-------------------------------------------------------------------------------
  Atom             x           y             z
-------------------------------------------------------------------------------
   1 K     x       1.0181     -0.0006      0.0000
           y       0.0006      1.0181      0.0000
           z       0.0000      0.0000      1.1901
-------------------------------------------------------------------------------
   2 Zn    x       1.8457     -0.2466      0.0000
           y      -0.2466      1.8457      0.0000
           z       0.0000      0.0000      1.5641
-------------------------------------------------------------------------------
   3 F     x      -0.9543      0.0130      0.0000
           y       0.0130     -0.9543      0.0000
           z       0.0000      0.0000     -0.8182
-------------------------------------------------------------------------------
   4 F     x      -0.9548     -0.1777      0.0000
           y      -0.1777     -0.9548      0.0000
           z       0.0000      0.0000     -0.9680
-------------------------------------------------------------------------------




  Elastic Constant Matrix: (Units=GPa)

-------------------------------------------------------------------------------
  Indices      1         2         3         4         5         6    
-------------------------------------------------------------------------------
       1    119.4530   23.6250   -4.5853    0.0000    0.0000    0.0000
       2     23.6250  119.4530   -4.5853    0.0000    0.0000    0.0000
       3     -4.5853   -4.5853  175.9504    0.0000    0.0000    0.0000
       4      0.0000    0.0000    0.0000    3.1954    0.0000    0.0000
       5      0.0000    0.0000    0.0000    0.0000    3.1954    0.0000
       6      0.0000    0.0000    0.0000    0.0000    0.0000   22.9675
-------------------------------------------------------------------------------


  Elastic Compliance Matrix: (Units=1/GPa)

-------------------------------------------------------------------------------
  Indices      1         2         3         4         5         6    
-------------------------------------------------------------------------------
       1    0.008718 -0.001717  0.000182  0.000000  0.000000  0.000000
       2   -0.001717  0.008718  0.000182  0.000000  0.000000  0.000000
       3    0.000182  0.000182  0.005693  0.000000  0.000000  0.000000
       4    0.000000  0.000000  0.000000  0.312946  0.000000  0.000000
       5    0.000000  0.000000  0.000000  0.000000  0.312946  0.000000
       6    0.000000  0.000000  0.000000  0.000000  0.000000  0.043540
-------------------------------------------------------------------------------

  Mechanical properties :

-------------------------------------------------------------------------------
  Convention :                    Reuss         Voigt         Hill
-------------------------------------------------------------------------------
  Bulk  Modulus (GPa)     =      48.96086      49.30726      49.13406
  Shear Modulus (GPa)     =       7.12176      32.56515      19.84345
-------------------------------------------------------------------------------
  Velocity S-wave (km/s)  =       1.46747       3.13799       2.44954
  Velocity P-wave (km/s)  =       4.20428       5.29517       4.78094
-------------------------------------------------------------------------------
  Compressibility (1/GPa) =    0.02042448
-------------------------------------------------------------------------------
  Stress axis :                     x             y             z
-------------------------------------------------------------------------------
  Youngs Moduli (GPa)     =     114.70361     114.70361     175.65649
-------------------------------------------------------------------------------
  Poissons Ratio (x)      =                     0.19697      -0.03205
  Poissons Ratio (y)      =       0.19697                    -0.03205
  Poissons Ratio (z)      =      -0.02093      -0.02093
-------------------------------------------------------------------------------


  Piezoelectric Strain Matrix: (Units=C/m**2)

-------------------------------------------------------------------------------
  Indices      1         2         3         4         5         6    
-------------------------------------------------------------------------------
       x     0.00000   0.00000   0.00000   0.00000   0.00000   0.00000
       y     0.00000   0.00000   0.00000   0.00000   0.00000   0.00000
       z     0.00000   0.00000   0.00000   0.00000   0.00000   0.00000
-------------------------------------------------------------------------------


  Piezoelectric Stress Matrix: (Units=10**-11 C/N)

-------------------------------------------------------------------------------
  Indices      1         2         3         4         5         6    
-------------------------------------------------------------------------------
       x     0.00000   0.00000   0.00000   0.00000   0.00000   0.00000
       y     0.00000   0.00000   0.00000   0.00000   0.00000   0.00000
       z     0.00000   0.00000   0.00000   0.00000   0.00000   0.00000
-------------------------------------------------------------------------------


  Static dielectric constant tensor : 

-------------------------------------------------------------------------------
              x         y         z
-------------------------------------------------------------------------------
       x     3.66473   0.00000   0.00000
       y     0.00000   3.66473   0.00000
       z     0.00000   0.00000   0.89288
--------------------------------------------------------------------------------

  High frequency dielectric constant tensor : 

-------------------------------------------------------------------------------
              x         y         z
-------------------------------------------------------------------------------
       x     1.48041   0.00000   0.00000
       y     0.00000   1.48041   0.00000
       z     0.00000   0.00000   1.47360
-------------------------------------------------------------------------------

  Static refractive indices : 

-------------------------------------------------------------------------------
    1 =    0.94492      2 =    1.91435      3 =    1.91435
-------------------------------------------------------------------------------

  High frequency refractive indices : 

-------------------------------------------------------------------------------
    1 =    1.21392      2 =    1.21672      3 =    1.21672
-------------------------------------------------------------------------------


  Time to end of optimisation =       0.0482 seconds


  Peak dynamic memory used =       0.59 MB 


  Timing analysis for GULP :

--------------------------------------------------------------------------------
  Task / Subroutine                                          Time (Seconds)
--------------------------------------------------------------------------------
  Calculation of reciprocal space energy and derivatives          0.0009
  Calculation of reciprocal space energy using symmetry           0.0039
  Calculation of real space energy and derivatives                0.0037
  Calculation of real space energy using symmetry                 0.0358
  Symmetry generation of equivalent positions                     0.0005
--------------------------------------------------------------------------------
  Total CPU time                                                  0.0483
--------------------------------------------------------------------------------


  CIF file written as perov.cif                                               


  Job Finished at 12:49.37 22nd February   2017                               

