********************************************************************************
*                       GENERAL UTILITY LATTICE PROGRAM                        *
*                                 Julian Gale                                  *
*                      Nanochemistry Research Institute                        *
*                           Department of Chemistry                            *
*                    Curtin University, Western Australia                      *
********************************************************************************
* Version = 4.3.2 * Last modified =  3rd March 2015                            *
********************************************************************************
*  optimise     - perform optimisation run                                     *
*  conp         - constant pressure calculation                                *
*  property     - calculate properties for final geometry                      *
********************************************************************************

  Job Started  at 12:49.36 22nd February   2017                               

  Number of CPUs =     1


  Total number of configurations input =   1

********************************************************************************
*  Input for Configuration =   1                                               *
********************************************************************************

  Formula = K2Zn2F6                                                     

  Number of irreducible atoms/shells =       6


  Total number atoms/shells =      16

  Dimensionality = 3               :  Bulk   


  Symmetry :

  Crystal family                   :  Tetragonal  
  Crystal class  (Groth - 1921)    :  Ditetragonal Dipyramidal             

  Space group (centrosymmetric)    :  P 4/M B M       

  Patterson group                  :  P 4/m m m

  Cartesian lattice vectors (Angstroms) :

        4.200000    0.000000    0.000000
        0.000000    4.200000    0.000000
        0.000000    0.000000    4.200000

  Cell parameters (Angstroms/Degrees):

  a =       4.2000    alpha =  90.0000
  b =       4.2000    beta  =  90.0000
  c =       4.2000    gamma =  90.0000

  Initial cell volume =          74.088000 Angs**3

  Temperature of configuration =  0.000     K 

  Pressure of configuration =         0.000 GPa 

  Fractional coordinates of asymmetric unit :

--------------------------------------------------------------------------------
   No.  Atomic       x           y          z         Charge      Occupancy
        Label      (Frac)      (Frac)     (Frac)        (e)         (Frac)  
--------------------------------------------------------------------------------
      1 K     c    0.000000    0.000000    0.000000     1.20000    1.000000    
      2 Zn    c    0.000000    0.500000    0.000000     1.80000    1.000000    
      3 F     c    0.000000    0.500000    0.500000     0.37800    1.000000    
      4 F     c    0.227100 *  0.727100    0.000000     0.37800    1.000000    
      5 F     s    0.000000    0.500000    0.500000    -1.37800    1.000000    
      6 F     s    0.227100 *  0.727100    0.000000    -1.37800    1.000000    
--------------------------------------------------------------------------------


  Constraints : 

--------------------------------------------------------------------------------
  Constraint no.      Unconstrained     Constrained    Coefficient    Offset
                         Variable         Variable
--------------------------------------------------------------------------------
           1              Strain 1        Strain 2       1.00000      0.0000
           2                 4 x             4 y         1.00000      0.5000
           3                 6 x             6 y         1.00000      0.5000
--------------------------------------------------------------------------------


********************************************************************************
*  General input information                                                   *
********************************************************************************

  Species output for all configurations : 

--------------------------------------------------------------------------------
  Species    Type    Atomic    Atomic    Charge       Radii (Angs)     Library
                     Number     Mass       (e)     Cova   Ionic  VDW   Symbol
--------------------------------------------------------------------------------
    K        Core       19      39.10   1.200000   1.330  0.000  2.800          
    Zn       Core       30      65.39   1.800000   1.450  0.000  2.160          
    F        Core        9      19.00   0.378000   0.710  0.000  1.300          
    F        Shell       9       0.00  -1.378000   0.710  0.000  1.300          
--------------------------------------------------------------------------------


  Lattice summation method               =    Ewald          (3-D)
                                         =    Parry          (2-D)
                                         =    Saunders et al (1-D)
  Accuracy factor for lattice sums       =   12.000


  Time limit = Infinity

  Maximum range for interatomic potentials =    100000.000000 Angstroms

  General interatomic potentials :

--------------------------------------------------------------------------------
Atom  Types   Potential         A         B         C         D     Cutoffs(Ang)
  1     2                                                            Min    Max 
--------------------------------------------------------------------------------
K    c K    c Buckingham    0.219E+04 0.192      0.00      0.00     0.000 10.000
Zn   c F    s Buckingham    0.148E+04 0.266      0.00      0.00     0.000 10.000
F    s F    s Buckingham     912.     0.271      13.8      0.00     0.000 10.000
K    c F    s Buckingham    0.352E+04 0.267      0.00      0.00     0.000 10.000
F    c F    s Spring (c-s)   24.3      0.00      0.00      0.00     0.000  0.800
--------------------------------------------------------------------------------

********************************************************************************
*  Output for configuration   1                                                *
********************************************************************************


  Components of energy : 

--------------------------------------------------------------------------------
  Interatomic potentials     =         162.45946484 eV
  Monopole - monopole (real) =         -44.90907413 eV
  Monopole - monopole (recip)=         -63.86482843 eV
  Monopole - monopole (total)=        -108.77390256 eV
--------------------------------------------------------------------------------
  Total lattice energy       =          53.68556228 eV
--------------------------------------------------------------------------------
  Total lattice energy       =            5179.8361 kJ/(mole unit cells)
--------------------------------------------------------------------------------


  Number of variables =        4

  Maximum number of calculations  =          1000
  Maximum Hessian update interval =            10
  Maximum step size               =   1.000000000
  Maximum parameter tolerance     =   0.000010000
  Maximum function  tolerance     =   0.000010000
  Maximum gradient  tolerance     =   0.001000000
  Maximum gradient  component     =   0.010000000

  Symmetry constrained optimisation

  Symmetry used for second derivatives

  Cell parameters to be optimised using strains

  Newton-Raphson optimiser to be used

  BFGS hessian update to be used

  Start of bulk optimisation :

  Cycle:      0 Energy:        53.685562  Gnorm:    208.730975  CPU:    0.005
  ** Hessian calculated **
  Cycle:      1 Energy:       -68.902450  Gnorm:     25.589685  CPU:    0.012
  ** Hessian calculated **
  Cycle:      2 Energy:       -69.597635  Gnorm:      6.029087  CPU:    0.018
  Cycle:      3 Energy:       -69.692715  Gnorm:      1.606415  CPU:    0.021
  Cycle:      4 Energy:       -69.692715  Gnorm:      1.606415  CPU:    0.024
  ** Hessian calculated **
  Cycle:      5 Energy:       -69.695473  Gnorm:      0.081096  CPU:    0.030
  Cycle:      6 Energy:       -69.695490  Gnorm:      0.004323  CPU:    0.033


  **** Optimisation achieved ****


  Final energy =     -69.69548977 eV
  Final Gnorm  =       0.00059370

  Components of energy : 

--------------------------------------------------------------------------------
  Interatomic potentials     =           9.49499854 eV
  Monopole - monopole (real) =         -16.62357668 eV
  Monopole - monopole (recip)=         -62.56691163 eV
  Monopole - monopole (total)=         -79.19048831 eV
--------------------------------------------------------------------------------
  Total lattice energy       =         -69.69548977 eV
--------------------------------------------------------------------------------
  Total lattice energy       =           -6724.5494 kJ/(mole unit cells)
--------------------------------------------------------------------------------

  Final asymmetric unit coordinates :

--------------------------------------------------------------------------------
   No.  Atomic        x           y           z         Radius
        Label       (Frac)      (Frac)      (Frac)       (Angs) 
--------------------------------------------------------------------------------
     1  K     c     0.000000    0.000000    0.000000    0.000000
     2  Zn    c     0.000000    0.500000    0.000000    0.000000
     3  F     c     0.000000    0.500000    0.500000    0.000000
     4  F     c     0.224116    0.724116    0.000000    0.000000
     5  F     s     0.000000    0.500000    0.500000    0.000000
     6  F     s     0.222034    0.722034    0.000000    0.000000
--------------------------------------------------------------------------------

  Final Cartesian lattice vectors (Angstroms) :

        6.742297    0.000000    0.000000
        0.000000    6.742297    0.000000
        0.000000    0.000000    3.931052


  Final cell parameters and derivatives :

--------------------------------------------------------------------------------
       a            6.742297 Angstrom     dE/de1(xx)    -0.000706 eV/strain
       b            6.742297 Angstrom     dE/de2(yy)     0.000000 eV/strain
       c            3.931052 Angstrom     dE/de3(zz)     0.000251 eV/strain
       alpha       90.000000 Degrees      dE/de4(yz)     0.000000 eV/strain
       beta        90.000000 Degrees      dE/de5(xz)     0.000000 eV/strain
       gamma       90.000000 Degrees      dE/de6(xy)     0.000000 eV/strain
--------------------------------------------------------------------------------

  Primitive cell volume =           178.699996 Angs**3

  Density of cell =      3.001284 g/cm**3

  Non-primitive cell volume =           178.699996 Angs**3


  Final internal derivatives :

--------------------------------------------------------------------------------
   No.  Atomic          a             b             c           Radius
        Label          (eV)          (eV)          (eV)        (eV/Angs)
--------------------------------------------------------------------------------
      1 K     c       0.000000      0.000000      0.000000      0.000000
      2 Zn    c       0.000000      0.000000      0.000000      0.000000
      3 F     c       0.000000      0.000000      0.000000      0.000000
      4 F     c       0.001726      0.000000      0.000000      0.000000
      5 F     s       0.000000      0.000000      0.000000      0.000000
      6 F     s      -0.001448      0.000000      0.000000      0.000000
--------------------------------------------------------------------------------
  Maximum abs         0.001726      0.000000      0.000000      0.000000
--------------------------------------------------------------------------------


  Born effective charge tensors : 

-------------------------------------------------------------------------------
  Atom             x           y             z
-------------------------------------------------------------------------------
   1 K     x       0.9885     -0.0031      0.0000
           y       0.0031      0.9885      0.0000
           z       0.0000      0.0000      1.1838
-------------------------------------------------------------------------------
   2 Zn    x       1.7078     -0.1233      0.0000
           y      -0.1233      1.7078      0.0000
           z       0.0000      0.0000      1.2689
-------------------------------------------------------------------------------
   3 F     x      -0.9041      0.0075      0.0000
           y       0.0075     -0.9041      0.0000
           z       0.0000      0.0000     -0.7322
-------------------------------------------------------------------------------
   4 F     x      -0.8961     -0.2253      0.0000
           y      -0.2253     -0.8961      0.0000
           z       0.0000      0.0000     -0.8603
-------------------------------------------------------------------------------




  Elastic Constant Matrix: (Units=GPa)

-------------------------------------------------------------------------------
  Indices      1         2         3         4         5         6    
-------------------------------------------------------------------------------
       1     93.7984   24.6004   -3.2592    0.0000    0.0000    0.0000
       2     24.6004   93.7984   -3.2592    0.0000    0.0000    0.0000
       3     -3.2592   -3.2592  122.1272    0.0000    0.0000    0.0000
       4      0.0000    0.0000    0.0000    3.5577    0.0000    0.0000
       5      0.0000    0.0000    0.0000    0.0000    3.5577    0.0000
       6      0.0000    0.0000    0.0000    0.0000    0.0000   29.6341
-------------------------------------------------------------------------------


  Elastic Compliance Matrix: (Units=1/GPa)

-------------------------------------------------------------------------------
  Indices      1         2         3         4         5         6    
-------------------------------------------------------------------------------
       1    0.011455 -0.002996  0.000226  0.000000  0.000000  0.000000
       2   -0.002996  0.011455  0.000226  0.000000  0.000000  0.000000
       3    0.000226  0.000226  0.008200  0.000000  0.000000  0.000000
       4    0.000000  0.000000  0.000000  0.281077  0.000000  0.000000
       5    0.000000  0.000000  0.000000  0.000000  0.281077  0.000000
       6    0.000000  0.000000  0.000000  0.000000  0.000000  0.033745
-------------------------------------------------------------------------------

  Mechanical properties :

-------------------------------------------------------------------------------
  Convention :                    Reuss         Voigt         Hill
-------------------------------------------------------------------------------
  Bulk  Modulus (GPa)     =      38.43190      38.43203      38.43196
  Shear Modulus (GPa)     =       7.80308      26.79272      17.29790
-------------------------------------------------------------------------------
  Velocity S-wave (km/s)  =       1.61242       2.98782       2.40073
  Velocity P-wave (km/s)  =       4.03382       4.97071       4.52657
-------------------------------------------------------------------------------
  Compressibility (1/GPa) =    0.02602005
-------------------------------------------------------------------------------
  Stress axis :                     x             y             z
-------------------------------------------------------------------------------
  Youngs Moduli (GPa)     =      87.29912      87.29912     121.94781
-------------------------------------------------------------------------------
  Poissons Ratio (x)      =                     0.26158      -0.02753
  Poissons Ratio (y)      =       0.26158                    -0.02753
  Poissons Ratio (z)      =      -0.01971      -0.01971
-------------------------------------------------------------------------------


  Piezoelectric Strain Matrix: (Units=C/m**2)

-------------------------------------------------------------------------------
  Indices      1         2         3         4         5         6    
-------------------------------------------------------------------------------
       x     0.00000   0.00000   0.00000   0.00000   0.00000   0.00000
       y     0.00000   0.00000   0.00000   0.00000   0.00000   0.00000
       z     0.00000   0.00000   0.00000   0.00000   0.00000   0.00000
-------------------------------------------------------------------------------


  Piezoelectric Stress Matrix: (Units=10**-11 C/N)

-------------------------------------------------------------------------------
  Indices      1         2         3         4         5         6    
-------------------------------------------------------------------------------
       x     0.00000   0.00000   0.00000   0.00000   0.00000   0.00000
       y     0.00000   0.00000   0.00000   0.00000   0.00000   0.00000
       z     0.00000   0.00000   0.00000   0.00000   0.00000   0.00000
-------------------------------------------------------------------------------


  Static dielectric constant tensor : 

-------------------------------------------------------------------------------
              x         y         z
-------------------------------------------------------------------------------
       x    -0.29132   0.00000   0.00000
       y     0.00000  -0.29132   0.00000
       z     0.00000   0.00000   0.76502
--------------------------------------------------------------------------------

  High frequency dielectric constant tensor : 

-------------------------------------------------------------------------------
              x         y         z
-------------------------------------------------------------------------------
       x     1.45956   0.00000   0.00000
       y     0.00000   1.45956   0.00000
       z     0.00000   0.00000   1.43220
-------------------------------------------------------------------------------

  Static refractive indices : 

-------------------------------------------------------------------------------
    1 =   -0.53974      2 =   -0.53974      3 =    0.87465
-------------------------------------------------------------------------------

  High frequency refractive indices : 

-------------------------------------------------------------------------------
    1 =    1.19674      2 =    1.20812      3 =    1.20812
-------------------------------------------------------------------------------


  Time to end of optimisation =       0.0421 seconds


  Peak dynamic memory used =       0.59 MB 


  Timing analysis for GULP :

--------------------------------------------------------------------------------
  Task / Subroutine                                          Time (Seconds)
--------------------------------------------------------------------------------
  Calculation of reciprocal space energy and derivatives          0.0009
  Calculation of reciprocal space energy using symmetry           0.0034
  Calculation of real space energy and derivatives                0.0038
  Calculation of real space energy using symmetry                 0.0303
  Symmetry generation of equivalent positions                     0.0004
--------------------------------------------------------------------------------
  Total CPU time                                                  0.0422
--------------------------------------------------------------------------------


  CIF file written as perov.cif                                               


  Job Finished at 12:49.36 22nd February   2017                               

