********************************************************************************
*                       GENERAL UTILITY LATTICE PROGRAM                        *
*                                 Julian Gale                                  *
*                      Nanochemistry Research Institute                        *
*                           Department of Chemistry                            *
*                    Curtin University, Western Australia                      *
********************************************************************************
* Version = 4.3.2 * Last modified =  3rd March 2015                            *
********************************************************************************
*  optimise     - perform optimisation run                                     *
*  conp         - constant pressure calculation                                *
*  property     - calculate properties for final geometry                      *
********************************************************************************

  Job Started  at 12:49.38 22nd February   2017                               

  Number of CPUs =     1


  Total number of configurations input =   1

********************************************************************************
*  Input for Configuration =   1                                               *
********************************************************************************

  Formula = K2Zn2F6                                                     

  Number of irreducible atoms/shells =       6


  Total number atoms/shells =      16

  Dimensionality = 3               :  Bulk   


  Symmetry :

  Crystal family                   :  Tetragonal  
  Crystal class  (Groth - 1921)    :  Ditetragonal Dipyramidal             

  Space group (centrosymmetric)    :  P 4/M B M       

  Patterson group                  :  P 4/m m m

  Cartesian lattice vectors (Angstroms) :

        4.200000    0.000000    0.000000
        0.000000    4.200000    0.000000
        0.000000    0.000000    4.200000

  Cell parameters (Angstroms/Degrees):

  a =       4.2000    alpha =  90.0000
  b =       4.2000    beta  =  90.0000
  c =       4.2000    gamma =  90.0000

  Initial cell volume =          74.088000 Angs**3

  Temperature of configuration =  0.000     K 

  Pressure of configuration =         0.000 GPa 

  Fractional coordinates of asymmetric unit :

--------------------------------------------------------------------------------
   No.  Atomic       x           y          z         Charge      Occupancy
        Label      (Frac)      (Frac)     (Frac)        (e)         (Frac)  
--------------------------------------------------------------------------------
      1 K     c    0.000000    0.000000    0.000000     1.50000    1.000000    
      2 Zn    c    0.000000    0.500000    0.000000     1.70000    1.000000    
      3 F     c    0.000000    0.500000    0.500000     0.37800    1.000000    
      4 F     c    0.227100 *  0.727100    0.000000     0.37800    1.000000    
      5 F     s    0.000000    0.500000    0.500000    -1.44467    1.000000    
      6 F     s    0.227100 *  0.727100    0.000000    -1.44467    1.000000    
--------------------------------------------------------------------------------


  Constraints : 

--------------------------------------------------------------------------------
  Constraint no.      Unconstrained     Constrained    Coefficient    Offset
                         Variable         Variable
--------------------------------------------------------------------------------
           1              Strain 1        Strain 2       1.00000      0.0000
           2                 4 x             4 y         1.00000      0.5000
           3                 6 x             6 y         1.00000      0.5000
--------------------------------------------------------------------------------


********************************************************************************
*  General input information                                                   *
********************************************************************************

  Species output for all configurations : 

--------------------------------------------------------------------------------
  Species    Type    Atomic    Atomic    Charge       Radii (Angs)     Library
                     Number     Mass       (e)     Cova   Ionic  VDW   Symbol
--------------------------------------------------------------------------------
    K        Core       19      39.10   1.500000   1.330  0.000  2.800          
    Zn       Core       30      65.39   1.700000   1.450  0.000  2.160          
    F        Core        9      19.00   0.378000   0.710  0.000  1.300          
    F        Shell       9       0.00  -1.444667   0.710  0.000  1.300          
--------------------------------------------------------------------------------


  Lattice summation method               =    Ewald          (3-D)
                                         =    Parry          (2-D)
                                         =    Saunders et al (1-D)
  Accuracy factor for lattice sums       =   12.000


  Time limit = Infinity

  Maximum range for interatomic potentials =    100000.000000 Angstroms

  General interatomic potentials :

--------------------------------------------------------------------------------
Atom  Types   Potential         A         B         C         D     Cutoffs(Ang)
  1     2                                                            Min    Max 
--------------------------------------------------------------------------------
K    c K    c Buckingham    0.219E+04 0.192      0.00      0.00     0.000 10.000
Zn   c F    s Buckingham    0.148E+04 0.266      0.00      0.00     0.000 10.000
F    s F    s Buckingham     912.     0.271      13.8      0.00     0.000 10.000
K    c F    s Buckingham    0.352E+04 0.267      0.00      0.00     0.000 10.000
F    c F    s Spring (c-s)   26.8      0.00      0.00      0.00     0.000  0.800
--------------------------------------------------------------------------------

********************************************************************************
*  Output for configuration   1                                                *
********************************************************************************


  Components of energy : 

--------------------------------------------------------------------------------
  Interatomic potentials     =         162.45946484 eV
  Monopole - monopole (real) =         -50.03556353 eV
  Monopole - monopole (recip)=         -71.03626857 eV
  Monopole - monopole (total)=        -121.07183209 eV
--------------------------------------------------------------------------------
  Total lattice energy       =          41.38763275 eV
--------------------------------------------------------------------------------
  Total lattice energy       =            3993.2739 kJ/(mole unit cells)
--------------------------------------------------------------------------------


  Number of variables =        4

  Maximum number of calculations  =          1000
  Maximum Hessian update interval =            10
  Maximum step size               =   1.000000000
  Maximum parameter tolerance     =   0.000010000
  Maximum function  tolerance     =   0.000010000
  Maximum gradient  tolerance     =   0.001000000
  Maximum gradient  component     =   0.010000000

  Symmetry constrained optimisation

  Symmetry used for second derivatives

  Cell parameters to be optimised using strains

  Newton-Raphson optimiser to be used

  BFGS hessian update to be used

  Start of bulk optimisation :

  Cycle:      0 Energy:        41.387633  Gnorm:    206.850156  CPU:    0.005
  ** Hessian calculated **
  Cycle:      1 Energy:       -77.123722  Gnorm:     21.225661  CPU:    0.012
  ** Hessian calculated **
  Cycle:      2 Energy:       -77.592222  Gnorm:      4.305910  CPU:    0.018
  Cycle:      3 Energy:       -77.626917  Gnorm:      0.057386  CPU:    0.021
  Cycle:      4 Energy:       -77.627081  Gnorm:      0.044213  CPU:    0.024
  Cycle:      5 Energy:       -77.627123  Gnorm:      0.001311  CPU:    0.027


  **** Optimisation achieved ****


  Final energy =     -77.62712342 eV
  Final Gnorm  =       0.00002843

  Components of energy : 

--------------------------------------------------------------------------------
  Interatomic potentials     =          10.46907233 eV
  Monopole - monopole (real) =         -32.38922625 eV
  Monopole - monopole (recip)=         -55.70696950 eV
  Monopole - monopole (total)=         -88.09619575 eV
--------------------------------------------------------------------------------
  Total lattice energy       =         -77.62712342 eV
--------------------------------------------------------------------------------
  Total lattice energy       =           -7489.8308 kJ/(mole unit cells)
--------------------------------------------------------------------------------

  Final asymmetric unit coordinates :

--------------------------------------------------------------------------------
   No.  Atomic        x           y           z         Radius
        Label       (Frac)      (Frac)      (Frac)       (Angs) 
--------------------------------------------------------------------------------
     1  K     c     0.000000    0.000000    0.000000    0.000000
     2  Zn    c     0.000000    0.500000    0.000000    0.000000
     3  F     c     0.000000    0.500000    0.500000    0.000000
     4  F     c     0.250000    0.750000    0.000000    0.000000
     5  F     s     0.000000    0.500000    0.500000    0.000000
     6  F     s     0.250000    0.750000    0.000000    0.000000
--------------------------------------------------------------------------------

  Final Cartesian lattice vectors (Angstroms) :

        6.533356    0.000000    0.000000
        0.000000    6.533356    0.000000
        0.000000    0.000000    3.937693


  Final cell parameters and derivatives :

--------------------------------------------------------------------------------
       a            6.533356 Angstrom     dE/de1(xx)     0.000109 eV/strain
       b            6.533356 Angstrom     dE/de2(yy)     0.000000 eV/strain
       c            3.937693 Angstrom     dE/de3(zz)     0.000024 eV/strain
       alpha       90.000000 Degrees      dE/de4(yz)     0.000000 eV/strain
       beta        90.000000 Degrees      dE/de5(xz)     0.000000 eV/strain
       gamma       90.000000 Degrees      dE/de6(xy)     0.000000 eV/strain
--------------------------------------------------------------------------------

  Primitive cell volume =           168.079412 Angs**3

  Density of cell =      3.190929 g/cm**3

  Non-primitive cell volume =           168.079412 Angs**3


  Final internal derivatives :

--------------------------------------------------------------------------------
   No.  Atomic          a             b             c           Radius
        Label          (eV)          (eV)          (eV)        (eV/Angs)
--------------------------------------------------------------------------------
      1 K     c       0.000000      0.000000      0.000000      0.000000
      2 Zn    c       0.000000      0.000000      0.000000      0.000000
      3 F     c       0.000000      0.000000      0.000000      0.000000
      4 F     c      -0.000019      0.000000      0.000000      0.000000
      5 F     s       0.000000      0.000000      0.000000      0.000000
      6 F     s       0.000008      0.000000      0.000000      0.000000
--------------------------------------------------------------------------------
  Maximum abs         0.000019      0.000000      0.000000      0.000000
--------------------------------------------------------------------------------


  Born effective charge tensors : 

-------------------------------------------------------------------------------
  Atom             x           y             z
-------------------------------------------------------------------------------
   1 K     x       1.2355      0.0000      0.0000
           y       0.0000      1.2355      0.0000
           z       0.0000      0.0000      1.4634
-------------------------------------------------------------------------------
   2 Zn    x       1.7086      0.0000      0.0000
           y       0.0000      1.7086      0.0000
           z       0.0000      0.0000      1.1700
-------------------------------------------------------------------------------
   3 F     x      -1.0147      0.0000      0.0000
           y       0.0000     -1.0147      0.0000
           z       0.0000      0.0000     -0.8186
-------------------------------------------------------------------------------
   4 F     x      -0.9647     -0.2657      0.0000
           y      -0.2657     -0.9647      0.0000
           z       0.0000      0.0000     -0.9074
-------------------------------------------------------------------------------




  Elastic Constant Matrix: (Units=GPa)

-------------------------------------------------------------------------------
  Indices      1         2         3         4         5         6    
-------------------------------------------------------------------------------
       1    139.7098   53.5435    4.7020    0.0000    0.0000    0.0000
       2     53.5435  139.7098    4.7020    0.0000    0.0000    0.0000
       3      4.7020    4.7020  135.7610    0.0000    0.0000    0.0000
       4      0.0000    0.0000    0.0000    4.7020    0.0000    0.0000
       5      0.0000    0.0000    0.0000    0.0000    4.7020    0.0000
       6      0.0000    0.0000    0.0000    0.0000    0.0000   53.5435
-------------------------------------------------------------------------------


  Elastic Compliance Matrix: (Units=1/GPa)

-------------------------------------------------------------------------------
  Indices      1         2         3         4         5         6    
-------------------------------------------------------------------------------
       1    0.008394 -0.003211 -0.000180  0.000000  0.000000  0.000000
       2   -0.003211  0.008394 -0.000180  0.000000  0.000000  0.000000
       3   -0.000180 -0.000180  0.007378  0.000000  0.000000  0.000000
       4    0.000000  0.000000  0.000000  0.212675  0.000000  0.000000
       5    0.000000  0.000000  0.000000  0.000000  0.212675  0.000000
       6    0.000000  0.000000  0.000000  0.000000  0.000000  0.018676
-------------------------------------------------------------------------------

  Mechanical properties :

-------------------------------------------------------------------------------
  Convention :                    Reuss         Voigt         Hill
-------------------------------------------------------------------------------
  Bulk  Modulus (GPa)     =      58.73085      60.11950      59.42518
  Shear Modulus (GPa)     =      10.39479      36.07173      23.23326
-------------------------------------------------------------------------------
  Velocity S-wave (km/s)  =       1.80488       3.36221       2.69834
  Velocity P-wave (km/s)  =       4.76960       5.82352       5.32271
-------------------------------------------------------------------------------
  Compressibility (1/GPa) =    0.01702683
-------------------------------------------------------------------------------
  Stress axis :                     x             y             z
-------------------------------------------------------------------------------
  Youngs Moduli (GPa)     =     119.12740     119.12740     135.53222
-------------------------------------------------------------------------------
  Poissons Ratio (x)      =                     0.38253       0.02433
  Poissons Ratio (y)      =       0.38253                     0.02433
  Poissons Ratio (z)      =       0.02139       0.02139
-------------------------------------------------------------------------------


  Piezoelectric Strain Matrix: (Units=C/m**2)

-------------------------------------------------------------------------------
  Indices      1         2         3         4         5         6    
-------------------------------------------------------------------------------
       x     0.00000   0.00000   0.00000   0.00000   0.00000   0.00000
       y     0.00000   0.00000   0.00000   0.00000   0.00000   0.00000
       z     0.00000   0.00000   0.00000   0.00000   0.00000   0.00000
-------------------------------------------------------------------------------


  Piezoelectric Stress Matrix: (Units=10**-11 C/N)

-------------------------------------------------------------------------------
  Indices      1         2         3         4         5         6    
-------------------------------------------------------------------------------
       x     0.00000   0.00000   0.00000   0.00000   0.00000   0.00000
       y     0.00000   0.00000   0.00000   0.00000   0.00000   0.00000
       z     0.00000   0.00000   0.00000   0.00000   0.00000   0.00000
-------------------------------------------------------------------------------


  Static dielectric constant tensor : 

-------------------------------------------------------------------------------
              x         y         z
-------------------------------------------------------------------------------
       x   -11.85111   0.00000   0.00000
       y     0.00000 -11.85111   0.00000
       z     0.00000   0.00000   0.39555
--------------------------------------------------------------------------------

  High frequency dielectric constant tensor : 

-------------------------------------------------------------------------------
              x         y         z
-------------------------------------------------------------------------------
       x     1.49734   0.00000   0.00000
       y     0.00000   1.49734   0.00000
       z     0.00000   0.00000   1.45929
-------------------------------------------------------------------------------

  Static refractive indices : 

-------------------------------------------------------------------------------
    1 =   -3.44254      2 =   -3.44254      3 =    0.62893
-------------------------------------------------------------------------------

  High frequency refractive indices : 

-------------------------------------------------------------------------------
    1 =    1.20801      2 =    1.22366      3 =    1.22366
-------------------------------------------------------------------------------


  Time to end of optimisation =       0.0356 seconds


  Peak dynamic memory used =       0.59 MB 


  Timing analysis for GULP :

--------------------------------------------------------------------------------
  Task / Subroutine                                          Time (Seconds)
--------------------------------------------------------------------------------
  Calculation of reciprocal space energy and derivatives          0.0008
  Calculation of reciprocal space energy using symmetry           0.0026
  Calculation of real space energy and derivatives                0.0037
  Calculation of real space energy using symmetry                 0.0248
  Symmetry generation of equivalent positions                     0.0004
--------------------------------------------------------------------------------
  Total CPU time                                                  0.0356
--------------------------------------------------------------------------------


  CIF file written as perov.cif                                               


  Job Finished at 12:49.38 22nd February   2017                               

