********************************************************************************
*                       GENERAL UTILITY LATTICE PROGRAM                        *
*                                 Julian Gale                                  *
*                      Nanochemistry Research Institute                        *
*                           Department of Chemistry                            *
*                    Curtin University, Western Australia                      *
********************************************************************************
* Version = 4.3.2 * Last modified =  3rd March 2015                            *
********************************************************************************
*  optimise     - perform optimisation run                                     *
*  conp         - constant pressure calculation                                *
*  property     - calculate properties for final geometry                      *
********************************************************************************

  Job Started  at 12:49.34 22nd February   2017                               

  Number of CPUs =     1


  Total number of configurations input =   1

********************************************************************************
*  Input for Configuration =   1                                               *
********************************************************************************

  Formula = K2Zn2F6                                                     

  Number of irreducible atoms/shells =       6


  Total number atoms/shells =      16

  Dimensionality = 3               :  Bulk   


  Symmetry :

  Crystal family                   :  Tetragonal  
  Crystal class  (Groth - 1921)    :  Ditetragonal Dipyramidal             

  Space group (centrosymmetric)    :  P 4/M B M       

  Patterson group                  :  P 4/m m m

  Cartesian lattice vectors (Angstroms) :

        4.200000    0.000000    0.000000
        0.000000    4.200000    0.000000
        0.000000    0.000000    4.200000

  Cell parameters (Angstroms/Degrees):

  a =       4.2000    alpha =  90.0000
  b =       4.2000    beta  =  90.0000
  c =       4.2000    gamma =  90.0000

  Initial cell volume =          74.088000 Angs**3

  Temperature of configuration =  0.000     K 

  Pressure of configuration =         0.000 GPa 

  Fractional coordinates of asymmetric unit :

--------------------------------------------------------------------------------
   No.  Atomic       x           y          z         Charge      Occupancy
        Label      (Frac)      (Frac)     (Frac)        (e)         (Frac)  
--------------------------------------------------------------------------------
      1 K     c    0.000000    0.000000    0.000000     0.90000    1.000000    
      2 Zn    c    0.000000    0.500000    0.000000     1.90000    1.000000    
      3 F     c    0.000000    0.500000    0.500000     0.37800    1.000000    
      4 F     c    0.227100 *  0.727100    0.000000     0.37800    1.000000    
      5 F     s    0.000000    0.500000    0.500000    -1.31133    1.000000    
      6 F     s    0.227100 *  0.727100    0.000000    -1.31133    1.000000    
--------------------------------------------------------------------------------


  Constraints : 

--------------------------------------------------------------------------------
  Constraint no.      Unconstrained     Constrained    Coefficient    Offset
                         Variable         Variable
--------------------------------------------------------------------------------
           1              Strain 1        Strain 2       1.00000      0.0000
           2                 4 x             4 y         1.00000      0.5000
           3                 6 x             6 y         1.00000      0.5000
--------------------------------------------------------------------------------


********************************************************************************
*  General input information                                                   *
********************************************************************************

  Species output for all configurations : 

--------------------------------------------------------------------------------
  Species    Type    Atomic    Atomic    Charge       Radii (Angs)     Library
                     Number     Mass       (e)     Cova   Ionic  VDW   Symbol
--------------------------------------------------------------------------------
    K        Core       19      39.10   0.900000   1.330  0.000  2.800          
    Zn       Core       30      65.39   1.900000   1.450  0.000  2.160          
    F        Core        9      19.00   0.378000   0.710  0.000  1.300          
    F        Shell       9       0.00  -1.311333   0.710  0.000  1.300          
--------------------------------------------------------------------------------


  Lattice summation method               =    Ewald          (3-D)
                                         =    Parry          (2-D)
                                         =    Saunders et al (1-D)
  Accuracy factor for lattice sums       =   12.000


  Time limit = Infinity

  Maximum range for interatomic potentials =    100000.000000 Angstroms

  General interatomic potentials :

--------------------------------------------------------------------------------
Atom  Types   Potential         A         B         C         D     Cutoffs(Ang)
  1     2                                                            Min    Max 
--------------------------------------------------------------------------------
K    c K    c Buckingham    0.219E+04 0.192      0.00      0.00     0.000 10.000
Zn   c F    s Buckingham    0.148E+04 0.266      0.00      0.00     0.000 10.000
F    s F    s Buckingham     912.     0.271      13.8      0.00     0.000 10.000
K    c F    s Buckingham    0.352E+04 0.267      0.00      0.00     0.000 10.000
F    c F    s Spring (c-s)   22.0      0.00      0.00      0.00     0.000  0.800
--------------------------------------------------------------------------------

********************************************************************************
*  Output for configuration   1                                                *
********************************************************************************


  Components of energy : 

--------------------------------------------------------------------------------
  Interatomic potentials     =         162.45946484 eV
  Monopole - monopole (real) =         -40.52564143 eV
  Monopole - monopole (recip)=         -58.58979982 eV
  Monopole - monopole (total)=         -99.11544124 eV
--------------------------------------------------------------------------------
  Total lattice energy       =          63.34402360 eV
--------------------------------------------------------------------------------
  Total lattice energy       =            6111.7300 kJ/(mole unit cells)
--------------------------------------------------------------------------------


  Number of variables =        4

  Maximum number of calculations  =          1000
  Maximum Hessian update interval =            10
  Maximum step size               =   1.000000000
  Maximum parameter tolerance     =   0.000010000
  Maximum function  tolerance     =   0.000010000
  Maximum gradient  tolerance     =   0.001000000
  Maximum gradient  component     =   0.010000000

  Symmetry constrained optimisation

  Symmetry used for second derivatives

  Cell parameters to be optimised using strains

  Newton-Raphson optimiser to be used

  BFGS hessian update to be used

  Start of bulk optimisation :

  Cycle:      0 Energy:        63.344024  Gnorm:    210.114682  CPU:    0.005
  ** Hessian calculated **
  Cycle:      1 Energy:       -62.348528  Gnorm:     29.348211  CPU:    0.013
  ** Hessian calculated **
  Cycle:      2 Energy:       -63.383176  Gnorm:     12.744954  CPU:    0.019
  Cycle:      3 Energy:       -63.481305  Gnorm:      6.257478  CPU:    0.022
  ** Hessian calculated **
  Cycle:      4 Energy:       -63.509196  Gnorm:      2.268823  CPU:    0.027
  Cycle:      5 Energy:       -63.534605  Gnorm:      2.259564  CPU:    0.032
  Cycle:      6 Energy:       -63.581718  Gnorm:      2.287750  CPU:    0.035
  Cycle:      7 Energy:       -63.676757  Gnorm:      2.012942  CPU:    0.039
  Cycle:      8 Energy:       -63.716206  Gnorm:      1.339760  CPU:    0.043
  Cycle:      9 Energy:       -63.727599  Gnorm:      0.526296  CPU:    0.046
  Cycle:     10 Energy:       -63.727875  Gnorm:      0.026275  CPU:    0.049
  Cycle:     11 Energy:       -63.727882  Gnorm:      0.015460  CPU:    0.052
  Cycle:     12 Energy:       -63.727883  Gnorm:      0.003879  CPU:    0.055
  Cycle:     13 Energy:       -63.727883  Gnorm:      0.001478  CPU:    0.059
  ** Hessian calculated **


  **** Optimisation achieved ****


  Final energy =     -63.72788327 eV
  Final Gnorm  =       0.00008979

  Components of energy : 

--------------------------------------------------------------------------------
  Interatomic potentials     =           9.00375015 eV
  Monopole - monopole (real) =         -16.50083566 eV
  Monopole - monopole (recip)=         -56.23079776 eV
  Monopole - monopole (total)=         -72.73163342 eV
--------------------------------------------------------------------------------
  Total lattice energy       =         -63.72788327 eV
--------------------------------------------------------------------------------
  Total lattice energy       =           -6148.7666 kJ/(mole unit cells)
--------------------------------------------------------------------------------

  Final asymmetric unit coordinates :

--------------------------------------------------------------------------------
   No.  Atomic        x           y           z         Radius
        Label       (Frac)      (Frac)      (Frac)       (Angs) 
--------------------------------------------------------------------------------
     1  K     c     0.000000    0.000000    0.000000    0.000000
     2  Zn    c     0.000000    0.500000    0.000000    0.000000
     3  F     c     0.000000    0.500000    0.500000    0.000000
     4  F     c     0.293794    0.793794    0.000000    0.000000
     5  F     s     0.000000    0.500000    0.500000    0.000000
     6  F     s     0.298031    0.798031    0.000000    0.000000
--------------------------------------------------------------------------------

  Final Cartesian lattice vectors (Angstroms) :

        7.024794    0.000000    0.000000
        0.000000    7.024794    0.000000
        0.000000    0.000000    3.944970


  Final cell parameters and derivatives :

--------------------------------------------------------------------------------
       a            7.024794 Angstrom     dE/de1(xx)    -0.000196 eV/strain
       b            7.024794 Angstrom     dE/de2(yy)     0.000000 eV/strain
       c            3.944970 Angstrom     dE/de3(zz)    -0.000083 eV/strain
       alpha       90.000000 Degrees      dE/de4(yz)     0.000000 eV/strain
       beta        90.000000 Degrees      dE/de5(xz)     0.000000 eV/strain
       gamma       90.000000 Degrees      dE/de6(xy)     0.000000 eV/strain
--------------------------------------------------------------------------------

  Primitive cell volume =           194.675312 Angs**3

  Density of cell =      2.754995 g/cm**3

  Non-primitive cell volume =           194.675312 Angs**3


  Final internal derivatives :

--------------------------------------------------------------------------------
   No.  Atomic          a             b             c           Radius
        Label          (eV)          (eV)          (eV)        (eV/Angs)
--------------------------------------------------------------------------------
      1 K     c       0.000000      0.000000      0.000000      0.000000
      2 Zn    c       0.000000      0.000000      0.000000      0.000000
      3 F     c       0.000000      0.000000      0.000000      0.000000
      4 F     c      -0.000199      0.000000      0.000000      0.000000
      5 F     s       0.000000      0.000000      0.000000      0.000000
      6 F     s       0.000210      0.000000      0.000000      0.000000
--------------------------------------------------------------------------------
  Maximum abs         0.000210      0.000000      0.000000      0.000000
--------------------------------------------------------------------------------


  Born effective charge tensors : 

-------------------------------------------------------------------------------
  Atom             x           y             z
-------------------------------------------------------------------------------
   1 K     x       0.7644      0.0010      0.0000
           y      -0.0010      0.7644      0.0000
           z       0.0000      0.0000      0.8932
-------------------------------------------------------------------------------
   2 Zn    x       1.5961      0.2069      0.0000
           y       0.2069      1.5961      0.0000
           z       0.0000      0.0000      1.3959
-------------------------------------------------------------------------------
   3 F     x      -0.7853     -0.0091      0.0000
           y      -0.0091     -0.7853      0.0000
           z       0.0000      0.0000     -0.6681
-------------------------------------------------------------------------------
   4 F     x      -0.7876     -0.1246      0.0000
           y      -0.1246     -0.7876      0.0000
           z       0.0000      0.0000     -0.8105
-------------------------------------------------------------------------------




  Elastic Constant Matrix: (Units=GPa)

-------------------------------------------------------------------------------
  Indices      1         2         3         4         5         6    
-------------------------------------------------------------------------------
       1     61.9809   12.2069   -2.4095    0.0000    0.0000    0.0000
       2     12.2069   61.9809   -2.4095    0.0000    0.0000    0.0000
       3     -2.4095   -2.4095  110.0985    0.0000    0.0000    0.0000
       4      0.0000    0.0000    0.0000    1.7890    0.0000    0.0000
       5      0.0000    0.0000    0.0000    0.0000    1.7890    0.0000
       6      0.0000    0.0000    0.0000    0.0000    0.0000   10.5184
-------------------------------------------------------------------------------


  Elastic Compliance Matrix: (Units=1/GPa)

-------------------------------------------------------------------------------
  Indices      1         2         3         4         5         6    
-------------------------------------------------------------------------------
       1    0.016795 -0.003296  0.000295  0.000000  0.000000  0.000000
       2   -0.003296  0.016795  0.000295  0.000000  0.000000  0.000000
       3    0.000295  0.000295  0.009096  0.000000  0.000000  0.000000
       4    0.000000  0.000000  0.000000  0.558985  0.000000  0.000000
       5    0.000000  0.000000  0.000000  0.000000  0.558985  0.000000
       6    0.000000  0.000000  0.000000  0.000000  0.000000  0.095072
-------------------------------------------------------------------------------

  Mechanical properties :

-------------------------------------------------------------------------------
  Convention :                    Reuss         Voigt         Hill
-------------------------------------------------------------------------------
  Bulk  Modulus (GPa)     =      26.82811      27.64847      27.23829
  Shear Modulus (GPa)     =       3.92600      17.93076      10.92838
-------------------------------------------------------------------------------
  Velocity S-wave (km/s)  =       1.19375       2.55117       1.99167
  Velocity P-wave (km/s)  =       3.41146       4.32593       3.89562
-------------------------------------------------------------------------------
  Compressibility (1/GPa) =    0.03727433
-------------------------------------------------------------------------------
  Stress axis :                     x             y             z
-------------------------------------------------------------------------------
  Youngs Moduli (GPa)     =      59.54276      59.54276     109.94203
-------------------------------------------------------------------------------
  Poissons Ratio (x)      =                     0.19626      -0.03248
  Poissons Ratio (y)      =       0.19626                    -0.03248
  Poissons Ratio (z)      =      -0.01759      -0.01759
-------------------------------------------------------------------------------


  Piezoelectric Strain Matrix: (Units=C/m**2)

-------------------------------------------------------------------------------
  Indices      1         2         3         4         5         6    
-------------------------------------------------------------------------------
       x     0.00000   0.00000   0.00000   0.00000   0.00000   0.00000
       y     0.00000   0.00000   0.00000   0.00000   0.00000   0.00000
       z     0.00000   0.00000   0.00000   0.00000   0.00000   0.00000
-------------------------------------------------------------------------------


  Piezoelectric Stress Matrix: (Units=10**-11 C/N)

-------------------------------------------------------------------------------
  Indices      1         2         3         4         5         6    
-------------------------------------------------------------------------------
       x     0.00000   0.00000   0.00000   0.00000   0.00000   0.00000
       y     0.00000   0.00000   0.00000   0.00000   0.00000   0.00000
       z     0.00000   0.00000   0.00000   0.00000   0.00000   0.00000
-------------------------------------------------------------------------------


  Static dielectric constant tensor : 

-------------------------------------------------------------------------------
              x         y         z
-------------------------------------------------------------------------------
       x     3.12647   0.00000   0.00000
       y     0.00000   3.12647   0.00000
       z     0.00000   0.00000   1.13825
--------------------------------------------------------------------------------

  High frequency dielectric constant tensor : 

-------------------------------------------------------------------------------
              x         y         z
-------------------------------------------------------------------------------
       x     1.40220   0.00000   0.00000
       y     0.00000   1.40220   0.00000
       z     0.00000   0.00000   1.39951
-------------------------------------------------------------------------------

  Static refractive indices : 

-------------------------------------------------------------------------------
    1 =    1.06689      2 =    1.76818      3 =    1.76818
-------------------------------------------------------------------------------

  High frequency refractive indices : 

-------------------------------------------------------------------------------
    1 =    1.18301      2 =    1.18414      3 =    1.18414
-------------------------------------------------------------------------------


  Time to end of optimisation =       0.0689 seconds


  Peak dynamic memory used =       0.59 MB 


  Timing analysis for GULP :

--------------------------------------------------------------------------------
  Task / Subroutine                                          Time (Seconds)
--------------------------------------------------------------------------------
  Calculation of reciprocal space energy and derivatives          0.0010
  Calculation of reciprocal space energy using symmetry           0.0061
  Calculation of real space energy and derivatives                0.0038
  Calculation of real space energy using symmetry                 0.0538
  Symmetry generation of equivalent positions                     0.0005
--------------------------------------------------------------------------------
  Total CPU time                                                  0.0690
--------------------------------------------------------------------------------


  CIF file written as perov.cif                                               


  Job Finished at 12:49.34 22nd February   2017                               

