********************************************************************************
*                       GENERAL UTILITY LATTICE PROGRAM                        *
*                                 Julian Gale                                  *
*                      Nanochemistry Research Institute                        *
*                           Department of Chemistry                            *
*                    Curtin University, Western Australia                      *
********************************************************************************
* Version = 4.3.2 * Last modified =  3rd March 2015                            *
********************************************************************************
*  optimise     - perform optimisation run                                     *
*  conp         - constant pressure calculation                                *
*  property     - calculate properties for final geometry                      *
********************************************************************************

  Job Started  at 12:49.32 22nd February   2017                               

  Number of CPUs =     1


  Total number of configurations input =   1

********************************************************************************
*  Input for Configuration =   1                                               *
********************************************************************************

  Formula = K2Zn2F6                                                     

  Number of irreducible atoms/shells =       6


  Total number atoms/shells =      16

  Dimensionality = 3               :  Bulk   


  Symmetry :

  Crystal family                   :  Tetragonal  
  Crystal class  (Groth - 1921)    :  Ditetragonal Dipyramidal             

  Space group (centrosymmetric)    :  P 4/M B M       

  Patterson group                  :  P 4/m m m

  Cartesian lattice vectors (Angstroms) :

        4.200000    0.000000    0.000000
        0.000000    4.200000    0.000000
        0.000000    0.000000    4.200000

  Cell parameters (Angstroms/Degrees):

  a =       4.2000    alpha =  90.0000
  b =       4.2000    beta  =  90.0000
  c =       4.2000    gamma =  90.0000

  Initial cell volume =          74.088000 Angs**3

  Temperature of configuration =  0.000     K 

  Pressure of configuration =         0.000 GPa 

  Fractional coordinates of asymmetric unit :

--------------------------------------------------------------------------------
   No.  Atomic       x           y          z         Charge      Occupancy
        Label      (Frac)      (Frac)     (Frac)        (e)         (Frac)  
--------------------------------------------------------------------------------
      1 K     c    0.000000    0.000000    0.000000     0.60000    1.000000    
      2 Zn    c    0.000000    0.500000    0.000000     2.00000    1.000000    
      3 F     c    0.000000    0.500000    0.500000     0.37800    1.000000    
      4 F     c    0.227100 *  0.727100    0.000000     0.37800    1.000000    
      5 F     s    0.000000    0.500000    0.500000    -1.24467    1.000000    
      6 F     s    0.227100 *  0.727100    0.000000    -1.24467    1.000000    
--------------------------------------------------------------------------------


  Constraints : 

--------------------------------------------------------------------------------
  Constraint no.      Unconstrained     Constrained    Coefficient    Offset
                         Variable         Variable
--------------------------------------------------------------------------------
           1              Strain 1        Strain 2       1.00000      0.0000
           2                 4 x             4 y         1.00000      0.5000
           3                 6 x             6 y         1.00000      0.5000
--------------------------------------------------------------------------------


********************************************************************************
*  General input information                                                   *
********************************************************************************

  Species output for all configurations : 

--------------------------------------------------------------------------------
  Species    Type    Atomic    Atomic    Charge       Radii (Angs)     Library
                     Number     Mass       (e)     Cova   Ionic  VDW   Symbol
--------------------------------------------------------------------------------
    K        Core       19      39.10   0.600000   1.330  0.000  2.800          
    Zn       Core       30      65.39   2.000000   1.450  0.000  2.160          
    F        Core        9      19.00   0.378000   0.710  0.000  1.300          
    F        Shell       9       0.00  -1.244667   0.710  0.000  1.300          
--------------------------------------------------------------------------------


  Lattice summation method               =    Ewald          (3-D)
                                         =    Parry          (2-D)
                                         =    Saunders et al (1-D)
  Accuracy factor for lattice sums       =   12.000


  Time limit = Infinity

  Maximum range for interatomic potentials =    100000.000000 Angstroms

  General interatomic potentials :

--------------------------------------------------------------------------------
Atom  Types   Potential         A         B         C         D     Cutoffs(Ang)
  1     2                                                            Min    Max 
--------------------------------------------------------------------------------
K    c K    c Buckingham    0.219E+04 0.192      0.00      0.00     0.000 10.000
Zn   c F    s Buckingham    0.148E+04 0.266      0.00      0.00     0.000 10.000
F    s F    s Buckingham     912.     0.271      13.8      0.00     0.000 10.000
K    c F    s Buckingham    0.352E+04 0.267      0.00      0.00     0.000 10.000
F    c F    s Spring (c-s)   19.9      0.00      0.00      0.00     0.000  0.800
--------------------------------------------------------------------------------

********************************************************************************
*  Output for configuration   1                                                *
********************************************************************************


  Components of energy : 

--------------------------------------------------------------------------------
  Interatomic potentials     =         162.45946484 eV
  Monopole - monopole (real) =         -36.88526542 eV
  Monopole - monopole (recip)=         -55.21118272 eV
  Monopole - monopole (total)=         -92.09644814 eV
--------------------------------------------------------------------------------
  Total lattice energy       =          70.36301671 eV
--------------------------------------------------------------------------------
  Total lattice energy       =            6788.9555 kJ/(mole unit cells)
--------------------------------------------------------------------------------


  Number of variables =        4

  Maximum number of calculations  =          1000
  Maximum Hessian update interval =            10
  Maximum step size               =   1.000000000
  Maximum parameter tolerance     =   0.000010000
  Maximum function  tolerance     =   0.000010000
  Maximum gradient  tolerance     =   0.001000000
  Maximum gradient  component     =   0.010000000

  Symmetry constrained optimisation

  Symmetry used for second derivatives

  Cell parameters to be optimised using strains

  Newton-Raphson optimiser to be used

  BFGS hessian update to be used

  Start of bulk optimisation :

  Cycle:      0 Energy:        70.363017  Gnorm:    210.979110  CPU:    0.005
  ** Hessian calculated **
  Cycle:      1 Energy:       -57.384342  Gnorm:     32.165440  CPU:    0.012
  ** Hessian calculated **
  Cycle:      2 Energy:       -58.590372  Gnorm:      8.567529  CPU:    0.018
  ** Hessian calculated **
  Cycle:      3 Energy:       -58.800856  Gnorm:     14.954443  CPU:    0.024
  ** Hessian calculated **
  Cycle:      4 Energy:       -58.922208  Gnorm:      3.457494  CPU:    0.029
  Cycle:      5 Energy:       -59.078630  Gnorm:      3.595655  CPU:    0.035
  Cycle:      6 Energy:       -59.233391  Gnorm:      3.220434  CPU:    0.039
  Cycle:      7 Energy:       -59.303634  Gnorm:      4.230529  CPU:    0.043
  Cycle:      8 Energy:       -59.410066  Gnorm:      4.423594  CPU:    0.047
  Cycle:      9 Energy:       -59.536599  Gnorm:      2.995071  CPU:    0.051
  Cycle:     10 Energy:       -59.561421  Gnorm:      0.455569  CPU:    0.054
  Cycle:     11 Energy:       -59.561691  Gnorm:      0.155218  CPU:    0.057
  Cycle:     12 Energy:       -59.561736  Gnorm:      0.163473  CPU:    0.060
  Cycle:     13 Energy:       -59.561757  Gnorm:      0.031613  CPU:    0.064
  ** Hessian calculated **
  Cycle:     14 Energy:       -59.561761  Gnorm:      0.008088  CPU:    0.069
  Cycle:     15 Energy:       -59.561761  Gnorm:      0.012168  CPU:    0.072
  Cycle:     16 Energy:       -59.561762  Gnorm:      0.010112  CPU:    0.075
  Cycle:     17 Energy:       -59.561762  Gnorm:      0.002424  CPU:    0.078
  Cycle:     18 Energy:       -59.561762  Gnorm:      0.001788  CPU:    0.081
  Cycle:     19 Energy:       -59.561762  Gnorm:      0.001654  CPU:    0.084


  **** Optimisation achieved ****


  Final energy =     -59.56176197 eV
  Final Gnorm  =       0.00042081

  Components of energy : 

--------------------------------------------------------------------------------
  Interatomic potentials     =           8.85462011 eV
  Monopole - monopole (real) =         -17.12259705 eV
  Monopole - monopole (recip)=         -51.29378502 eV
  Monopole - monopole (total)=         -68.41638208 eV
--------------------------------------------------------------------------------
  Total lattice energy       =         -59.56176197 eV
--------------------------------------------------------------------------------
  Total lattice energy       =           -5746.7995 kJ/(mole unit cells)
--------------------------------------------------------------------------------

  Final asymmetric unit coordinates :

--------------------------------------------------------------------------------
   No.  Atomic        x           y           z         Radius
        Label       (Frac)      (Frac)      (Frac)       (Angs) 
--------------------------------------------------------------------------------
     1  K     c     0.000000    0.000000    0.000000    0.000000
     2  Zn    c     0.000000    0.500000    0.000000    0.000000
     3  F     c     0.000000    0.500000    0.500000    0.000000
     4  F     c     0.193007    0.693007    0.000000    0.000000
     5  F     s     0.000000    0.500000    0.500000    0.000000
     6  F     s     0.186628    0.686628    0.000000    0.000000
--------------------------------------------------------------------------------

  Final Cartesian lattice vectors (Angstroms) :

        7.357481    0.000000    0.000000
        0.000000    7.357481    0.000000
        0.000000    0.000000    3.965066


  Final cell parameters and derivatives :

--------------------------------------------------------------------------------
       a            7.357481 Angstrom     dE/de1(xx)    -0.000406 eV/strain
       b            7.357481 Angstrom     dE/de2(yy)     0.000000 eV/strain
       c            3.965066 Angstrom     dE/de3(zz)    -0.000110 eV/strain
       alpha       90.000000 Degrees      dE/de4(yz)     0.000000 eV/strain
       beta        90.000000 Degrees      dE/de5(xz)     0.000000 eV/strain
       gamma       90.000000 Degrees      dE/de6(xy)     0.000000 eV/strain
--------------------------------------------------------------------------------

  Primitive cell volume =           214.639033 Angs**3

  Density of cell =      2.498751 g/cm**3

  Non-primitive cell volume =           214.639033 Angs**3


  Final internal derivatives :

--------------------------------------------------------------------------------
   No.  Atomic          a             b             c           Radius
        Label          (eV)          (eV)          (eV)        (eV/Angs)
--------------------------------------------------------------------------------
      1 K     c       0.000000      0.000000      0.000000      0.000000
      2 Zn    c       0.000000      0.000000      0.000000      0.000000
      3 F     c       0.000000      0.000000      0.000000      0.000000
      4 F     c      -0.000760      0.000000      0.000000      0.000000
      5 F     s       0.000000      0.000000      0.000000      0.000000
      6 F     s       0.001442      0.000000      0.000000      0.000000
--------------------------------------------------------------------------------
  Maximum abs         0.001442      0.000000      0.000000      0.000000
--------------------------------------------------------------------------------


  Born effective charge tensors : 

-------------------------------------------------------------------------------
  Atom             x           y             z
-------------------------------------------------------------------------------
   1 K     x       0.5167      0.0001      0.0000
           y      -0.0001      0.5167      0.0000
           z       0.0000      0.0000      0.6010
-------------------------------------------------------------------------------
   2 Zn    x       1.5161     -0.2657      0.0000
           y      -0.2657      1.5161      0.0000
           z       0.0000      0.0000      1.5269
-------------------------------------------------------------------------------
   3 F     x      -0.6751      0.0088      0.0000
           y       0.0088     -0.6751      0.0000
           z       0.0000      0.0000     -0.6098
-------------------------------------------------------------------------------
   4 F     x      -0.6788     -0.0406      0.0000
           y      -0.0406     -0.6788      0.0000
           z       0.0000      0.0000     -0.7591
-------------------------------------------------------------------------------




  Elastic Constant Matrix: (Units=GPa)

-------------------------------------------------------------------------------
  Indices      1         2         3         4         5         6    
-------------------------------------------------------------------------------
       1     36.6797    4.6395   -1.5860    0.0000    0.0000    0.0000
       2      4.6395   36.6797   -1.5860    0.0000    0.0000    0.0000
       3     -1.5860   -1.5860   98.0375    0.0000    0.0000    0.0000
       4      0.0000    0.0000    0.0000    0.8023    0.0000    0.0000
       5      0.0000    0.0000    0.0000    0.0000    0.8023    0.0000
       6      0.0000    0.0000    0.0000    0.0000    0.0000    1.6280
-------------------------------------------------------------------------------


  Elastic Compliance Matrix: (Units=1/GPa)

-------------------------------------------------------------------------------
  Indices      1         2         3         4         5         6    
-------------------------------------------------------------------------------
       1    0.027721 -0.003489  0.000392  0.000000  0.000000  0.000000
       2   -0.003489  0.027721  0.000392  0.000000  0.000000  0.000000
       3    0.000392  0.000392  0.010213  0.000000  0.000000  0.000000
       4    0.000000  0.000000  0.000000  1.246347  0.000000  0.000000
       5    0.000000  0.000000  0.000000  0.000000  1.246347  0.000000
       6    0.000000  0.000000  0.000000  0.000000  0.000000  0.614261
-------------------------------------------------------------------------------

  Mechanical properties :

-------------------------------------------------------------------------------
  Convention :                    Reuss         Voigt         Hill
-------------------------------------------------------------------------------
  Bulk  Modulus (GPa)     =      16.59896      19.37021      17.98458
  Shear Modulus (GPa)     =       1.56343      11.97516       6.76929
-------------------------------------------------------------------------------
  Velocity S-wave (km/s)  =       0.79100       2.18917       1.64593
  Velocity P-wave (km/s)  =       2.73444       3.76057       3.28778
-------------------------------------------------------------------------------
  Compressibility (1/GPa) =    0.06024475
-------------------------------------------------------------------------------
  Stress axis :                     x             y             z
-------------------------------------------------------------------------------
  Youngs Moduli (GPa)     =      36.07325      36.07325      97.91576
-------------------------------------------------------------------------------
  Poissons Ratio (x)      =                     0.12588      -0.03838
  Poissons Ratio (y)      =       0.12588                    -0.03838
  Poissons Ratio (z)      =      -0.01414      -0.01414
-------------------------------------------------------------------------------


  Piezoelectric Strain Matrix: (Units=C/m**2)

-------------------------------------------------------------------------------
  Indices      1         2         3         4         5         6    
-------------------------------------------------------------------------------
       x     0.00000   0.00000   0.00000   0.00000   0.00000   0.00000
       y     0.00000   0.00000   0.00000   0.00000   0.00000   0.00000
       z     0.00000   0.00000   0.00000   0.00000   0.00000   0.00000
-------------------------------------------------------------------------------


  Piezoelectric Stress Matrix: (Units=10**-11 C/N)

-------------------------------------------------------------------------------
  Indices      1         2         3         4         5         6    
-------------------------------------------------------------------------------
       x     0.00000   0.00000   0.00000   0.00000   0.00000   0.00000
       y     0.00000   0.00000   0.00000   0.00000   0.00000   0.00000
       z     0.00000   0.00000   0.00000   0.00000   0.00000   0.00000
-------------------------------------------------------------------------------


  Static dielectric constant tensor : 

-------------------------------------------------------------------------------
              x         y         z
-------------------------------------------------------------------------------
       x     3.78841   0.00000   0.00000
       y     0.00000   3.78841   0.00000
       z     0.00000   0.00000   1.65017
--------------------------------------------------------------------------------

  High frequency dielectric constant tensor : 

-------------------------------------------------------------------------------
              x         y         z
-------------------------------------------------------------------------------
       x     1.34614   0.00000   0.00000
       y     0.00000   1.34614   0.00000
       z     0.00000   0.00000   1.36529
-------------------------------------------------------------------------------

  Static refractive indices : 

-------------------------------------------------------------------------------
    1 =    1.28459      2 =    1.94638      3 =    1.94638
-------------------------------------------------------------------------------

  High frequency refractive indices : 

-------------------------------------------------------------------------------
    1 =    1.16023      2 =    1.16023      3 =    1.16845
-------------------------------------------------------------------------------


  Time to end of optimisation =       0.0932 seconds


  Peak dynamic memory used =       0.59 MB 


  Timing analysis for GULP :

--------------------------------------------------------------------------------
  Task / Subroutine                                          Time (Seconds)
--------------------------------------------------------------------------------
  Calculation of reciprocal space energy and derivatives          0.0011
  Calculation of reciprocal space energy using symmetry           0.0084
  Calculation of real space energy and derivatives                0.0040
  Calculation of real space energy using symmetry                 0.0751
  Symmetry generation of equivalent positions                     0.0005
--------------------------------------------------------------------------------
  Total CPU time                                                  0.0932
--------------------------------------------------------------------------------


  CIF file written as perov.cif                                               


  Job Finished at 12:49.32 22nd February   2017                               

