********************************************************************************
*                       GENERAL UTILITY LATTICE PROGRAM                        *
*                                 Julian Gale                                  *
*                      Nanochemistry Research Institute                        *
*                           Department of Chemistry                            *
*                    Curtin University, Western Australia                      *
********************************************************************************
* Version = 4.3.2 * Last modified =  3rd March 2015                            *
********************************************************************************
*  optimise     - perform optimisation run                                     *
*  conp         - constant pressure calculation                                *
*  property     - calculate properties for final geometry                      *
********************************************************************************

  Job Started  at 14:09.04  6th April      2017                               

  Number of CPUs =     1


  Total number of configurations input =   1

********************************************************************************
*  Input for Configuration =   1                                               *
********************************************************************************

  Formula = K2Zn2F6                                                     

  Number of irreducible atoms/shells =       6


  Total number atoms/shells =      16

  Dimensionality = 3               :  Bulk   


  Symmetry :

  Crystal family                   :  Tetragonal  
  Crystal class  (Groth - 1921)    :  Ditetragonal Dipyramidal             

  Space group (centrosymmetric)    :  P 4/M B M       

  Patterson group                  :  P 4/m m m

  Cartesian lattice vectors (Angstroms) :

        4.200000    0.000000    0.000000
        0.000000    4.200000    0.000000
        0.000000    0.000000    4.200000

  Cell parameters (Angstroms/Degrees):

  a =       4.2000    alpha =  90.0000
  b =       4.2000    beta  =  90.0000
  c =       4.2000    gamma =  90.0000

  Initial cell volume =          74.088000 Angs**3

  Temperature of configuration =  0.000     K 

  Pressure of configuration =         0.000 GPa 

  Fractional coordinates of asymmetric unit :

--------------------------------------------------------------------------------
   No.  Atomic       x           y          z         Charge      Occupancy
        Label      (Frac)      (Frac)     (Frac)        (e)         (Frac)  
--------------------------------------------------------------------------------
      1 K     c    0.000000    0.000000    0.000000     0.80000    1.000000    
      2 Zn    c    0.000000    0.500000    0.000000     2.30000    1.000000    
      3 F     c    0.000000    0.500000    0.500000     0.37800    1.000000    
      4 F     c    0.227100 *  0.727100    0.000000     0.37800    1.000000    
      5 F     s    0.000000    0.500000    0.500000    -1.41133    1.000000    
      6 F     s    0.227100 *  0.727100    0.000000    -1.41133    1.000000    
--------------------------------------------------------------------------------


  Constraints : 

--------------------------------------------------------------------------------
  Constraint no.      Unconstrained     Constrained    Coefficient    Offset
                         Variable         Variable
--------------------------------------------------------------------------------
           1              Strain 1        Strain 2       1.00000      0.0000
           2                 4 x             4 y         1.00000      0.5000
           3                 6 x             6 y         1.00000      0.5000
--------------------------------------------------------------------------------


********************************************************************************
*  General input information                                                   *
********************************************************************************

  Species output for all configurations : 

--------------------------------------------------------------------------------
  Species    Type    Atomic    Atomic    Charge       Radii (Angs)     Library
                     Number     Mass       (e)     Cova   Ionic  VDW   Symbol
--------------------------------------------------------------------------------
    K        Core       19      39.10   0.800000   1.330  0.000  2.800          
    Zn       Core       30      65.39   2.300000   1.450  0.000  2.160          
    F        Core        9      19.00   0.378000   0.710  0.000  1.300          
    F        Shell       9       0.00  -1.411333   0.710  0.000  1.300          
--------------------------------------------------------------------------------


  Lattice summation method               =    Ewald          (3-D)
                                         =    Parry          (2-D)
                                         =    Saunders et al (1-D)
  Accuracy factor for lattice sums       =   12.000


  Time limit = Infinity

  Maximum range for interatomic potentials =    100000.000000 Angstroms

  General interatomic potentials :

--------------------------------------------------------------------------------
Atom  Types   Potential         A         B         C         D     Cutoffs(Ang)
  1     2                                                            Min    Max 
--------------------------------------------------------------------------------
K    c K    c Buckingham    0.219E+04 0.192      0.00      0.00     0.000 10.000
Zn   c F    s Buckingham    0.148E+04 0.266      0.00      0.00     0.000 10.000
F    s F    s Buckingham     912.     0.271      60.0      0.00     0.000 10.000
K    c F    s Buckingham    0.352E+04 0.267      0.00      0.00     0.000 10.000
F    c F    s Spring (c-s)   25.5      0.00      0.00      0.00     0.000  0.800
--------------------------------------------------------------------------------

********************************************************************************
*  Output for configuration   1                                                *
********************************************************************************


  Components of energy : 

--------------------------------------------------------------------------------
  Interatomic potentials     =         153.76699540 eV
  Monopole - monopole (real) =         -51.51744406 eV
  Monopole - monopole (recip)=         -76.19907042 eV
  Monopole - monopole (total)=        -127.71651448 eV
--------------------------------------------------------------------------------
  Total lattice energy       =          26.05048093 eV
--------------------------------------------------------------------------------
  Total lattice energy       =            2513.4732 kJ/(mole unit cells)
--------------------------------------------------------------------------------


  Number of variables =        4

  Maximum number of calculations  =          1000
  Maximum Hessian update interval =            10
  Maximum step size               =   1.000000000
  Maximum parameter tolerance     =   0.000010000
  Maximum function  tolerance     =   0.000010000
  Maximum gradient  tolerance     =   0.001000000
  Maximum gradient  component     =   0.010000000

  Symmetry constrained optimisation

  Symmetry used for second derivatives

  Cell parameters to be optimised using strains

  Newton-Raphson optimiser to be used

  BFGS hessian update to be used

  Start of bulk optimisation :

  Cycle:      0 Energy:        26.050481  Gnorm:    193.079772  CPU:    0.005
  ** Hessian calculated **
  Cycle:      1 Energy:       -76.487251  Gnorm:     33.481502  CPU:    0.011
  ** Hessian calculated **
  Cycle:      2 Energy:       -86.754275  Gnorm:     15.616965  CPU:    0.017
  ** Hessian calculated **
  Cycle:      3 Energy:       -87.714480  Gnorm:     11.835295  CPU:    0.023
  Cycle:      4 Energy:       -88.087621  Gnorm:      6.233469  CPU:    0.026
  Cycle:      5 Energy:       -88.171227  Gnorm:      1.862434  CPU:    0.029
  Cycle:      6 Energy:       -88.181351  Gnorm:      1.069854  CPU:    0.033
  Cycle:      7 Energy:       -88.182973  Gnorm:      0.143397  CPU:    0.036
  Cycle:      8 Energy:       -88.183077  Gnorm:      0.029453  CPU:    0.039
  Cycle:      9 Energy:       -88.183083  Gnorm:      0.016382  CPU:    0.042
  Cycle:     10 Energy:       -88.183084  Gnorm:      0.001831  CPU:    0.045
  Cycle:     11 Energy:       -88.183084  Gnorm:      0.001011  CPU:    0.049


  **** Optimisation achieved ****


  Final energy =     -88.18308354 eV
  Final Gnorm  =       0.00022879

  Components of energy : 

--------------------------------------------------------------------------------
  Interatomic potentials     =          13.72373458 eV
  Monopole - monopole (real) =         -28.73852634 eV
  Monopole - monopole (recip)=         -73.16829178 eV
  Monopole - monopole (total)=        -101.90681812 eV
--------------------------------------------------------------------------------
  Total lattice energy       =         -88.18308354 eV
--------------------------------------------------------------------------------
  Total lattice energy       =           -8508.3196 kJ/(mole unit cells)
--------------------------------------------------------------------------------

  Final asymmetric unit coordinates :

--------------------------------------------------------------------------------
   No.  Atomic        x           y           z         Radius
        Label       (Frac)      (Frac)      (Frac)       (Angs) 
--------------------------------------------------------------------------------
     1  K     c     0.000000    0.000000    0.000000    0.000000
     2  Zn    c     0.000000    0.500000    0.000000    0.000000
     3  F     c     0.000000    0.500000    0.500000    0.000000
     4  F     c     0.192295    0.692295    0.000000    0.000000
     5  F     s     0.000000    0.500000    0.500000    0.000000
     6  F     s     0.185433    0.685433    0.000000    0.000000
--------------------------------------------------------------------------------

  Final Cartesian lattice vectors (Angstroms) :

        6.876012    0.000000    0.000000
        0.000000    6.876012    0.000000
        0.000000    0.000000    3.650425


  Final cell parameters and derivatives :

--------------------------------------------------------------------------------
       a            6.876012 Angstrom     dE/de1(xx)     0.000261 eV/strain
       b            6.876012 Angstrom     dE/de2(yy)     0.000000 eV/strain
       c            3.650425 Angstrom     dE/de3(zz)     0.000098 eV/strain
       alpha       90.000000 Degrees      dE/de4(yz)     0.000000 eV/strain
       beta        90.000000 Degrees      dE/de5(xz)     0.000000 eV/strain
       gamma       90.000000 Degrees      dE/de6(xy)     0.000000 eV/strain
--------------------------------------------------------------------------------

  Primitive cell volume =           172.590427 Angs**3

  Density of cell =      3.107527 g/cm**3

  Non-primitive cell volume =           172.590427 Angs**3


  Final internal derivatives :

--------------------------------------------------------------------------------
   No.  Atomic          a             b             c           Radius
        Label          (eV)          (eV)          (eV)        (eV/Angs)
--------------------------------------------------------------------------------
      1 K     c       0.000000      0.000000      0.000000      0.000000
      2 Zn    c       0.000000      0.000000      0.000000      0.000000
      3 F     c       0.000000      0.000000      0.000000      0.000000
      4 F     c      -0.000591      0.000000      0.000000      0.000000
      5 F     s       0.000000      0.000000      0.000000      0.000000
      6 F     s       0.000641      0.000000      0.000000      0.000000
--------------------------------------------------------------------------------
  Maximum abs         0.000641      0.000000      0.000000      0.000000
--------------------------------------------------------------------------------


  Born effective charge tensors : 

-------------------------------------------------------------------------------
  Atom             x           y             z
-------------------------------------------------------------------------------
   1 K     x       0.6671     -0.0007      0.0000
           y       0.0007      0.6671      0.0000
           z       0.0000      0.0000      0.8103
-------------------------------------------------------------------------------
   2 Zn    x       1.6305     -0.4057      0.0000
           y      -0.4057      1.6305      0.0000
           z       0.0000      0.0000      1.5727
-------------------------------------------------------------------------------
   3 F     x      -0.7957      0.0159      0.0000
           y       0.0159     -0.7957      0.0000
           z       0.0000      0.0000     -0.5811
-------------------------------------------------------------------------------
   4 F     x      -0.7510     -0.0410      0.0000
           y      -0.0410     -0.7510      0.0000
           z       0.0000      0.0000     -0.9009
-------------------------------------------------------------------------------




  Elastic Constant Matrix: (Units=GPa)

-------------------------------------------------------------------------------
  Indices      1         2         3         4         5         6    
-------------------------------------------------------------------------------
       1     71.7405   12.6090   -4.3024    0.0000    0.0000    0.0000
       2     12.6090   71.7405   -4.3024    0.0000    0.0000    0.0000
       3     -4.3024   -4.3024  177.2726    0.0000    0.0000    0.0000
       4      0.0000    0.0000    0.0000   -1.7274    0.0000    0.0000
       5      0.0000    0.0000    0.0000    0.0000   -1.7274    0.0000
       6      0.0000    0.0000    0.0000    0.0000    0.0000    2.4251
-------------------------------------------------------------------------------


  Elastic Compliance Matrix: (Units=1/GPa)

-------------------------------------------------------------------------------
  Indices      1         2         3         4         5         6    
-------------------------------------------------------------------------------
       1    0.014398 -0.002513  0.000288  0.000000  0.000000  0.000000
       2   -0.002513  0.014398  0.000288  0.000000  0.000000  0.000000
       3    0.000288  0.000288  0.005655  0.000000  0.000000  0.000000
       4    0.000000  0.000000  0.000000 -0.578894  0.000000  0.000000
       5    0.000000  0.000000  0.000000  0.000000 -0.578894  0.000000
       6    0.000000  0.000000  0.000000  0.000000  0.000000  0.412358
-------------------------------------------------------------------------------

  Mechanical properties :

-------------------------------------------------------------------------------
  Convention :                    Reuss         Voigt         Hill
-------------------------------------------------------------------------------
  Bulk  Modulus (GPa)     =      32.70270      36.52913      34.61592
  Shear Modulus (GPa)     =      -7.17450      20.91067       6.86808
-------------------------------------------------------------------------------
  Velocity S-wave (km/s)  =      -1.51946       2.59404       1.48666
  Velocity P-wave (km/s)  =       2.72862       4.55270       3.75316
-------------------------------------------------------------------------------
  Compressibility (1/GPa) =    0.03057851
-------------------------------------------------------------------------------
  Stress axis :                     x             y             z
-------------------------------------------------------------------------------
  Youngs Moduli (GPa)     =      69.45335      69.45335     176.83371
-------------------------------------------------------------------------------
  Poissons Ratio (x)      =                     0.17456      -0.05101
  Poissons Ratio (y)      =       0.17456                    -0.05101
  Poissons Ratio (z)      =      -0.02003      -0.02003
-------------------------------------------------------------------------------


  Piezoelectric Strain Matrix: (Units=C/m**2)

-------------------------------------------------------------------------------
  Indices      1         2         3         4         5         6    
-------------------------------------------------------------------------------
       x     0.00000   0.00000   0.00000   0.00000   0.00000   0.00000
       y     0.00000   0.00000   0.00000   0.00000   0.00000   0.00000
       z     0.00000   0.00000   0.00000   0.00000   0.00000   0.00000
-------------------------------------------------------------------------------


  Piezoelectric Stress Matrix: (Units=10**-11 C/N)

-------------------------------------------------------------------------------
  Indices      1         2         3         4         5         6    
-------------------------------------------------------------------------------
       x     0.00000   0.00000   0.00000   0.00000   0.00000   0.00000
       y     0.00000   0.00000   0.00000   0.00000   0.00000   0.00000
       z     0.00000   0.00000   0.00000   0.00000   0.00000   0.00000
-------------------------------------------------------------------------------


  Static dielectric constant tensor : 

-------------------------------------------------------------------------------
              x         y         z
-------------------------------------------------------------------------------
       x    15.79636   0.00000   0.00000
       y     0.00000  15.79636   0.00000
       z     0.00000   0.00000   2.02141
--------------------------------------------------------------------------------

  High frequency dielectric constant tensor : 

-------------------------------------------------------------------------------
              x         y         z
-------------------------------------------------------------------------------
       x     1.41257   0.00000   0.00000
       y     0.00000   1.41257   0.00000
       z     0.00000   0.00000   1.43445
-------------------------------------------------------------------------------

  Static refractive indices : 

-------------------------------------------------------------------------------
    1 =    1.42176      2 =    3.97446      3 =    3.97446
-------------------------------------------------------------------------------

  High frequency refractive indices : 

-------------------------------------------------------------------------------
    1 =    1.18851      2 =    1.18851      3 =    1.19769
-------------------------------------------------------------------------------


  Time to end of optimisation =       0.0572 seconds


  Peak dynamic memory used =       0.59 MB 


  Timing analysis for GULP :

--------------------------------------------------------------------------------
  Task / Subroutine                                          Time (Seconds)
--------------------------------------------------------------------------------
  Calculation of reciprocal space energy and derivatives          0.0009
  Calculation of reciprocal space energy using symmetry           0.0048
  Calculation of real space energy and derivatives                0.0039
  Calculation of real space energy using symmetry                 0.0435
  Symmetry generation of equivalent positions                     0.0004
--------------------------------------------------------------------------------
  Total CPU time                                                  0.0573
--------------------------------------------------------------------------------


  CIF file written as perov.cif                                               


  Job Finished at 14:09.04  6th April      2017                               

