********************************************************************************
*                       GENERAL UTILITY LATTICE PROGRAM                        *
*                                 Julian Gale                                  *
*                      Nanochemistry Research Institute                        *
*                           Department of Chemistry                            *
*                    Curtin University, Western Australia                      *
********************************************************************************
* Version = 4.3.2 * Last modified =  3rd March 2015                            *
********************************************************************************
*  optimise     - perform optimisation run                                     *
*  conp         - constant pressure calculation                                *
*  property     - calculate properties for final geometry                      *
********************************************************************************

  Job Started  at 14:09.04  6th April      2017                               

  Number of CPUs =     1


  Total number of configurations input =   1

********************************************************************************
*  Input for Configuration =   1                                               *
********************************************************************************

  Formula = K2Zn2F6                                                     

  Number of irreducible atoms/shells =       6


  Total number atoms/shells =      16

  Dimensionality = 3               :  Bulk   


  Symmetry :

  Crystal family                   :  Tetragonal  
  Crystal class  (Groth - 1921)    :  Ditetragonal Dipyramidal             

  Space group (centrosymmetric)    :  P 4/M B M       

  Patterson group                  :  P 4/m m m

  Cartesian lattice vectors (Angstroms) :

        4.200000    0.000000    0.000000
        0.000000    4.200000    0.000000
        0.000000    0.000000    4.200000

  Cell parameters (Angstroms/Degrees):

  a =       4.2000    alpha =  90.0000
  b =       4.2000    beta  =  90.0000
  c =       4.2000    gamma =  90.0000

  Initial cell volume =          74.088000 Angs**3

  Temperature of configuration =  0.000     K 

  Pressure of configuration =         0.000 GPa 

  Fractional coordinates of asymmetric unit :

--------------------------------------------------------------------------------
   No.  Atomic       x           y          z         Charge      Occupancy
        Label      (Frac)      (Frac)     (Frac)        (e)         (Frac)  
--------------------------------------------------------------------------------
      1 K     c    0.000000    0.000000    0.000000     0.80000    1.000000    
      2 Zn    c    0.000000    0.500000    0.000000     2.50000    1.000000    
      3 F     c    0.000000    0.500000    0.500000     0.37800    1.000000    
      4 F     c    0.227100 *  0.727100    0.000000     0.37800    1.000000    
      5 F     s    0.000000    0.500000    0.500000    -1.47800    1.000000    
      6 F     s    0.227100 *  0.727100    0.000000    -1.47800    1.000000    
--------------------------------------------------------------------------------


  Constraints : 

--------------------------------------------------------------------------------
  Constraint no.      Unconstrained     Constrained    Coefficient    Offset
                         Variable         Variable
--------------------------------------------------------------------------------
           1              Strain 1        Strain 2       1.00000      0.0000
           2                 4 x             4 y         1.00000      0.5000
           3                 6 x             6 y         1.00000      0.5000
--------------------------------------------------------------------------------


********************************************************************************
*  General input information                                                   *
********************************************************************************

  Species output for all configurations : 

--------------------------------------------------------------------------------
  Species    Type    Atomic    Atomic    Charge       Radii (Angs)     Library
                     Number     Mass       (e)     Cova   Ionic  VDW   Symbol
--------------------------------------------------------------------------------
    K        Core       19      39.10   0.800000   1.330  0.000  2.800          
    Zn       Core       30      65.39   2.500000   1.450  0.000  2.160          
    F        Core        9      19.00   0.378000   0.710  0.000  1.300          
    F        Shell       9       0.00  -1.478000   0.710  0.000  1.300          
--------------------------------------------------------------------------------


  Lattice summation method               =    Ewald          (3-D)
                                         =    Parry          (2-D)
                                         =    Saunders et al (1-D)
  Accuracy factor for lattice sums       =   12.000


  Time limit = Infinity

  Maximum range for interatomic potentials =    100000.000000 Angstroms

  General interatomic potentials :

--------------------------------------------------------------------------------
Atom  Types   Potential         A         B         C         D     Cutoffs(Ang)
  1     2                                                            Min    Max 
--------------------------------------------------------------------------------
K    c K    c Buckingham    0.219E+04 0.192      0.00      0.00     0.000 10.000
Zn   c F    s Buckingham    0.148E+04 0.266      0.00      0.00     0.000 10.000
F    s F    s Buckingham     912.     0.271      60.0      0.00     0.000 10.000
K    c F    s Buckingham    0.352E+04 0.267      0.00      0.00     0.000 10.000
F    c F    s Spring (c-s)   28.0      0.00      0.00      0.00     0.000  0.800
--------------------------------------------------------------------------------

********************************************************************************
*  Output for configuration   1                                                *
********************************************************************************


  Components of energy : 

--------------------------------------------------------------------------------
  Interatomic potentials     =         153.76699540 eV
  Monopole - monopole (real) =         -58.96530988 eV
  Monopole - monopole (recip)=         -87.80117074 eV
  Monopole - monopole (total)=        -146.76648062 eV
--------------------------------------------------------------------------------
  Total lattice energy       =           7.00051478 eV
--------------------------------------------------------------------------------
  Total lattice energy       =             675.4427 kJ/(mole unit cells)
--------------------------------------------------------------------------------


  Number of variables =        4

  Maximum number of calculations  =          1000
  Maximum Hessian update interval =            10
  Maximum step size               =   1.000000000
  Maximum parameter tolerance     =   0.000010000
  Maximum function  tolerance     =   0.000010000
  Maximum gradient  tolerance     =   0.001000000
  Maximum gradient  component     =   0.010000000

  Symmetry constrained optimisation

  Symmetry used for second derivatives

  Cell parameters to be optimised using strains

  Newton-Raphson optimiser to be used

  BFGS hessian update to be used

  Start of bulk optimisation :

  Cycle:      0 Energy:         7.000515  Gnorm:    188.539072  CPU:    0.005
  ** Hessian calculated **
  Cycle:      1 Energy:       -86.712119  Gnorm:     42.012954  CPU:    0.011
  ** Hessian calculated **
  Cycle:      2 Energy:      -101.714662  Gnorm:     16.061092  CPU:    0.017
  ** Hessian calculated **
  Cycle:      3 Energy:      -103.071151  Gnorm:     18.624075  CPU:    0.022
  Cycle:      4 Energy:      -103.660289  Gnorm:      6.245216  CPU:    0.026
  Cycle:      5 Energy:      -103.835042  Gnorm:      2.900077  CPU:    0.029
  Cycle:      6 Energy:      -103.859690  Gnorm:      1.632353  CPU:    0.032
  Cycle:      7 Energy:      -103.863422  Gnorm:      0.149995  CPU:    0.035
  Cycle:      8 Energy:      -103.863681  Gnorm:      0.067733  CPU:    0.038
  Cycle:      9 Energy:      -103.863701  Gnorm:      0.040887  CPU:    0.042
  Cycle:     10 Energy:      -103.863706  Gnorm:      0.006089  CPU:    0.045
  Cycle:     11 Energy:      -103.863707  Gnorm:      0.004970  CPU:    0.048
  Cycle:     12 Energy:      -103.863707  Gnorm:      0.001943  CPU:    0.051
  ** Hessian calculated **


  **** Optimisation achieved ****


  Final energy =    -103.86370695 eV
  Final Gnorm  =       0.00040999

  Components of energy : 

--------------------------------------------------------------------------------
  Interatomic potentials     =          17.05841453 eV
  Monopole - monopole (real) =         -36.76368082 eV
  Monopole - monopole (recip)=         -84.15844066 eV
  Monopole - monopole (total)=        -120.92212148 eV
--------------------------------------------------------------------------------
  Total lattice energy       =        -103.86370695 eV
--------------------------------------------------------------------------------
  Total lattice energy       =          -10021.2600 kJ/(mole unit cells)
--------------------------------------------------------------------------------

  Final asymmetric unit coordinates :

--------------------------------------------------------------------------------
   No.  Atomic        x           y           z         Radius
        Label       (Frac)      (Frac)      (Frac)       (Angs) 
--------------------------------------------------------------------------------
     1  K     c     0.000000    0.000000    0.000000    0.000000
     2  Zn    c     0.000000    0.500000    0.000000    0.000000
     3  F     c     0.000000    0.500000    0.500000    0.000000
     4  F     c     0.187666    0.687666    0.000000    0.000000
     5  F     s     0.000000    0.500000    0.500000    0.000000
     6  F     s     0.179904    0.679904    0.000000    0.000000
--------------------------------------------------------------------------------

  Final Cartesian lattice vectors (Angstroms) :

        6.810626    0.000000    0.000000
        0.000000    6.810626    0.000000
        0.000000    0.000000    3.547115


  Final cell parameters and derivatives :

--------------------------------------------------------------------------------
       a            6.810626 Angstrom     dE/de1(xx)     0.000756 eV/strain
       b            6.810626 Angstrom     dE/de2(yy)     0.000000 eV/strain
       c            3.547115 Angstrom     dE/de3(zz)    -0.000040 eV/strain
       alpha       90.000000 Degrees      dE/de4(yz)     0.000000 eV/strain
       beta        90.000000 Degrees      dE/de5(xz)     0.000000 eV/strain
       gamma       90.000000 Degrees      dE/de6(xy)     0.000000 eV/strain
--------------------------------------------------------------------------------

  Primitive cell volume =           164.531622 Angs**3

  Density of cell =      3.259735 g/cm**3

  Non-primitive cell volume =           164.531622 Angs**3


  Final internal derivatives :

--------------------------------------------------------------------------------
   No.  Atomic          a             b             c           Radius
        Label          (eV)          (eV)          (eV)        (eV/Angs)
--------------------------------------------------------------------------------
      1 K     c       0.000000      0.000000      0.000000      0.000000
      2 Zn    c       0.000000      0.000000      0.000000      0.000000
      3 F     c       0.000000      0.000000      0.000000      0.000000
      4 F     c      -0.000416      0.000000      0.000000      0.000000
      5 F     s       0.000000      0.000000      0.000000      0.000000
      6 F     s       0.001394      0.000000      0.000000      0.000000
--------------------------------------------------------------------------------
  Maximum abs         0.001394      0.000000      0.000000      0.000000
--------------------------------------------------------------------------------


  Born effective charge tensors : 

-------------------------------------------------------------------------------
  Atom             x           y             z
-------------------------------------------------------------------------------
   1 K     x       0.6770      0.0006      0.0000
           y      -0.0006      0.6770      0.0000
           z       0.0000      0.0000      0.8123
-------------------------------------------------------------------------------
   2 Zn    x       1.6758     -0.4642      0.0000
           y      -0.4642      1.6758      0.0000
           z       0.0000      0.0000      1.7102
-------------------------------------------------------------------------------
   3 F     x      -0.8133      0.0174      0.0000
           y       0.0174     -0.8133      0.0000
           z       0.0000      0.0000     -0.6126
-------------------------------------------------------------------------------
   4 F     x      -0.7698     -0.0134      0.0000
           y      -0.0134     -0.7698      0.0000
           z       0.0000      0.0000     -0.9549
-------------------------------------------------------------------------------




  Elastic Constant Matrix: (Units=GPa)

-------------------------------------------------------------------------------
  Indices      1         2         3         4         5         6    
-------------------------------------------------------------------------------
       1     80.4869   11.7267   -4.9353    0.0000    0.0000    0.0000
       2     11.7267   80.4869   -4.9353    0.0000    0.0000    0.0000
       3     -4.9353   -4.9353  209.8962    0.0000    0.0000    0.0000
       4      0.0000    0.0000    0.0000   -2.2819    0.0000    0.0000
       5      0.0000    0.0000    0.0000    0.0000   -2.2819    0.0000
       6      0.0000    0.0000    0.0000    0.0000    0.0000    0.7710
-------------------------------------------------------------------------------


  Elastic Compliance Matrix: (Units=1/GPa)

-------------------------------------------------------------------------------
  Indices      1         2         3         4         5         6    
-------------------------------------------------------------------------------
       1    0.012708 -0.001836  0.000256  0.000000  0.000000  0.000000
       2   -0.001836  0.012708  0.000256  0.000000  0.000000  0.000000
       3    0.000256  0.000256  0.004776  0.000000  0.000000  0.000000
       4    0.000000  0.000000  0.000000 -0.438241  0.000000  0.000000
       5    0.000000  0.000000  0.000000  0.000000 -0.438241  0.000000
       6    0.000000  0.000000  0.000000  0.000000  0.000000  1.296962
-------------------------------------------------------------------------------

  Mechanical properties :

-------------------------------------------------------------------------------
  Convention :                    Reuss         Voigt         Hill
-------------------------------------------------------------------------------
  Bulk  Modulus (GPa)     =      36.30781      41.62026      38.96403
  Shear Modulus (GPa)     =      10.81077      23.84239      17.32658
-------------------------------------------------------------------------------
  Velocity S-wave (km/s)  =       1.82111       2.70448       2.30550
  Velocity P-wave (km/s)  =       3.94464       4.74555       4.36351
-------------------------------------------------------------------------------
  Compressibility (1/GPa) =    0.02754228
-------------------------------------------------------------------------------
  Stress axis :                     x             y             z
-------------------------------------------------------------------------------
  Youngs Moduli (GPa)     =      78.69355      78.69355     209.36789
-------------------------------------------------------------------------------
  Poissons Ratio (x)      =                     0.14446      -0.05352
  Poissons Ratio (y)      =       0.14446                    -0.05352
  Poissons Ratio (z)      =      -0.02012      -0.02012
-------------------------------------------------------------------------------


  Piezoelectric Strain Matrix: (Units=C/m**2)

-------------------------------------------------------------------------------
  Indices      1         2         3         4         5         6    
-------------------------------------------------------------------------------
       x     0.00000   0.00000   0.00000   0.00000   0.00000   0.00000
       y     0.00000   0.00000   0.00000   0.00000   0.00000   0.00000
       z     0.00000   0.00000   0.00000   0.00000   0.00000   0.00000
-------------------------------------------------------------------------------


  Piezoelectric Stress Matrix: (Units=10**-11 C/N)

-------------------------------------------------------------------------------
  Indices      1         2         3         4         5         6    
-------------------------------------------------------------------------------
       x     0.00000   0.00000   0.00000   0.00000   0.00000   0.00000
       y     0.00000   0.00000   0.00000   0.00000   0.00000   0.00000
       z     0.00000   0.00000   0.00000   0.00000   0.00000   0.00000
-------------------------------------------------------------------------------


  Static dielectric constant tensor : 

-------------------------------------------------------------------------------
              x         y         z
-------------------------------------------------------------------------------
       x   -79.20624   0.00000   0.00000
       y     0.00000 -79.20624   0.00000
       z     0.00000   0.00000   2.09610
--------------------------------------------------------------------------------

  High frequency dielectric constant tensor : 

-------------------------------------------------------------------------------
              x         y         z
-------------------------------------------------------------------------------
       x     1.41906   0.00000   0.00000
       y     0.00000   1.41906   0.00000
       z     0.00000   0.00000   1.45401
-------------------------------------------------------------------------------

  Static refractive indices : 

-------------------------------------------------------------------------------
    1 =   -8.89979      2 =   -8.89979      3 =    1.44779
-------------------------------------------------------------------------------

  High frequency refractive indices : 

-------------------------------------------------------------------------------
    1 =    1.19124      2 =    1.19124      3 =    1.20582
-------------------------------------------------------------------------------


  Time to end of optimisation =       0.0618 seconds


  Peak dynamic memory used =       0.59 MB 


  Timing analysis for GULP :

--------------------------------------------------------------------------------
  Task / Subroutine                                          Time (Seconds)
--------------------------------------------------------------------------------
  Calculation of reciprocal space energy and derivatives          0.0010
  Calculation of reciprocal space energy using symmetry           0.0053
  Calculation of real space energy and derivatives                0.0039
  Calculation of real space energy using symmetry                 0.0475
  Symmetry generation of equivalent positions                     0.0005
--------------------------------------------------------------------------------
  Total CPU time                                                  0.0618
--------------------------------------------------------------------------------


  CIF file written as perov.cif                                               


  Job Finished at 14:09.04  6th April      2017                               

