********************************************************************************
*                       GENERAL UTILITY LATTICE PROGRAM                        *
*                                 Julian Gale                                  *
*                      Nanochemistry Research Institute                        *
*                           Department of Chemistry                            *
*                    Curtin University, Western Australia                      *
********************************************************************************
* Version = 4.3.2 * Last modified =  3rd March 2015                            *
********************************************************************************
*  optimise     - perform optimisation run                                     *
*  conp         - constant pressure calculation                                *
*  property     - calculate properties for final geometry                      *
********************************************************************************

  Job Started  at 14:09.07  6th April      2017                               

  Number of CPUs =     1


  Total number of configurations input =   1

********************************************************************************
*  Input for Configuration =   1                                               *
********************************************************************************

  Formula = K2Zn2F6                                                     

  Number of irreducible atoms/shells =       6


  Total number atoms/shells =      16

  Dimensionality = 3               :  Bulk   


  Symmetry :

  Crystal family                   :  Tetragonal  
  Crystal class  (Groth - 1921)    :  Ditetragonal Dipyramidal             

  Space group (centrosymmetric)    :  P 4/M B M       

  Patterson group                  :  P 4/m m m

  Cartesian lattice vectors (Angstroms) :

        4.200000    0.000000    0.000000
        0.000000    4.200000    0.000000
        0.000000    0.000000    4.200000

  Cell parameters (Angstroms/Degrees):

  a =       4.2000    alpha =  90.0000
  b =       4.2000    beta  =  90.0000
  c =       4.2000    gamma =  90.0000

  Initial cell volume =          74.088000 Angs**3

  Temperature of configuration =  0.000     K 

  Pressure of configuration =         0.000 GPa 

  Fractional coordinates of asymmetric unit :

--------------------------------------------------------------------------------
   No.  Atomic       x           y          z         Charge      Occupancy
        Label      (Frac)      (Frac)     (Frac)        (e)         (Frac)  
--------------------------------------------------------------------------------
      1 K     c    0.000000    0.000000    0.000000     1.30000    1.000000    
      2 Zn    c    0.000000    0.500000    0.000000     2.20000    1.000000    
      3 F     c    0.000000    0.500000    0.500000     0.37800    1.000000    
      4 F     c    0.227100 *  0.727100    0.000000     0.37800    1.000000    
      5 F     s    0.000000    0.500000    0.500000    -1.54467    1.000000    
      6 F     s    0.227100 *  0.727100    0.000000    -1.54467    1.000000    
--------------------------------------------------------------------------------


  Constraints : 

--------------------------------------------------------------------------------
  Constraint no.      Unconstrained     Constrained    Coefficient    Offset
                         Variable         Variable
--------------------------------------------------------------------------------
           1              Strain 1        Strain 2       1.00000      0.0000
           2                 4 x             4 y         1.00000      0.5000
           3                 6 x             6 y         1.00000      0.5000
--------------------------------------------------------------------------------


********************************************************************************
*  General input information                                                   *
********************************************************************************

  Species output for all configurations : 

--------------------------------------------------------------------------------
  Species    Type    Atomic    Atomic    Charge       Radii (Angs)     Library
                     Number     Mass       (e)     Cova   Ionic  VDW   Symbol
--------------------------------------------------------------------------------
    K        Core       19      39.10   1.300000   1.330  0.000  2.800          
    Zn       Core       30      65.39   2.200000   1.450  0.000  2.160          
    F        Core        9      19.00   0.378000   0.710  0.000  1.300          
    F        Shell       9       0.00  -1.544667   0.710  0.000  1.300          
--------------------------------------------------------------------------------


  Lattice summation method               =    Ewald          (3-D)
                                         =    Parry          (2-D)
                                         =    Saunders et al (1-D)
  Accuracy factor for lattice sums       =   12.000


  Time limit = Infinity

  Maximum range for interatomic potentials =    100000.000000 Angstroms

  General interatomic potentials :

--------------------------------------------------------------------------------
Atom  Types   Potential         A         B         C         D     Cutoffs(Ang)
  1     2                                                            Min    Max 
--------------------------------------------------------------------------------
K    c K    c Buckingham    0.219E+04 0.192      0.00      0.00     0.000 10.000
Zn   c F    s Buckingham    0.148E+04 0.266      0.00      0.00     0.000 10.000
F    s F    s Buckingham     912.     0.271      60.0      0.00     0.000 10.000
K    c F    s Buckingham    0.352E+04 0.267      0.00      0.00     0.000 10.000
F    c F    s Spring (c-s)   30.6      0.00      0.00      0.00     0.000  0.800
--------------------------------------------------------------------------------

********************************************************************************
*  Output for configuration   1                                                *
********************************************************************************


  Components of energy : 

--------------------------------------------------------------------------------
  Interatomic potentials     =         153.76699540 eV
  Monopole - monopole (real) =         -61.83256416 eV
  Monopole - monopole (recip)=         -88.31145866 eV
  Monopole - monopole (total)=        -150.14402283 eV
--------------------------------------------------------------------------------
  Total lattice energy       =           3.62297258 eV
--------------------------------------------------------------------------------
  Total lattice energy       =             349.5615 kJ/(mole unit cells)
--------------------------------------------------------------------------------


  Number of variables =        4

  Maximum number of calculations  =          1000
  Maximum Hessian update interval =            10
  Maximum step size               =   1.000000000
  Maximum parameter tolerance     =   0.000010000
  Maximum function  tolerance     =   0.000010000
  Maximum gradient  tolerance     =   0.001000000
  Maximum gradient  component     =   0.010000000

  Symmetry constrained optimisation

  Symmetry used for second derivatives

  Cell parameters to be optimised using strains

  Newton-Raphson optimiser to be used

  BFGS hessian update to be used

  Start of bulk optimisation :

  Cycle:      0 Energy:         3.622973  Gnorm:    189.184802  CPU:    0.005
  ** Hessian calculated **
  Cycle:      1 Energy:       -92.877719  Gnorm:     33.778600  CPU:    0.011
  ** Hessian calculated **
  Cycle:      2 Energy:      -102.612585  Gnorm:     11.943407  CPU:    0.017
  Cycle:      3 Energy:      -103.314953  Gnorm:     11.758493  CPU:    0.021
  Cycle:      4 Energy:      -103.479883  Gnorm:      2.201210  CPU:    0.024
  Cycle:      5 Energy:      -103.485722  Gnorm:      0.353257  CPU:    0.028
  Cycle:      6 Energy:      -103.486569  Gnorm:      0.094176  CPU:    0.031
  Cycle:      7 Energy:      -103.486625  Gnorm:      0.035023  CPU:    0.034
  Cycle:      8 Energy:      -103.486636  Gnorm:      0.012826  CPU:    0.037
  Cycle:      9 Energy:      -103.486637  Gnorm:      0.002342  CPU:    0.040


  **** Optimisation achieved ****


  Final energy =    -103.48663687 eV
  Final Gnorm  =       0.00065586

  Components of energy : 

--------------------------------------------------------------------------------
  Interatomic potentials     =          15.23292320 eV
  Monopole - monopole (real) =         -30.42841791 eV
  Monopole - monopole (recip)=         -88.29114216 eV
  Monopole - monopole (total)=        -118.71956007 eV
--------------------------------------------------------------------------------
  Total lattice energy       =        -103.48663687 eV
--------------------------------------------------------------------------------
  Total lattice energy       =           -9984.8785 kJ/(mole unit cells)
--------------------------------------------------------------------------------

  Final asymmetric unit coordinates :

--------------------------------------------------------------------------------
   No.  Atomic        x           y           z         Radius
        Label       (Frac)      (Frac)      (Frac)       (Angs) 
--------------------------------------------------------------------------------
     1  K     c     0.000000    0.000000    0.000000    0.000000
     2  Zn    c     0.000000    0.500000    0.000000    0.000000
     3  F     c     0.000000    0.500000    0.500000    0.000000
     4  F     c     0.210065    0.710065    0.000000    0.000000
     5  F     s     0.000000    0.500000    0.500000    0.000000
     6  F     s     0.206213    0.706213    0.000000    0.000000
--------------------------------------------------------------------------------

  Final Cartesian lattice vectors (Angstroms) :

        6.423511    0.000000    0.000000
        0.000000    6.423511    0.000000
        0.000000    0.000000    3.599002


  Final cell parameters and derivatives :

--------------------------------------------------------------------------------
       a            6.423511 Angstrom     dE/de1(xx)     0.001021 eV/strain
       b            6.423511 Angstrom     dE/de2(yy)     0.000000 eV/strain
       c            3.599002 Angstrom     dE/de3(zz)     0.000020 eV/strain
       alpha       90.000000 Degrees      dE/de4(yz)     0.000000 eV/strain
       beta        90.000000 Degrees      dE/de5(xz)     0.000000 eV/strain
       gamma       90.000000 Degrees      dE/de6(xy)     0.000000 eV/strain
--------------------------------------------------------------------------------

  Primitive cell volume =           148.500231 Angs**3

  Density of cell =      3.611640 g/cm**3

  Non-primitive cell volume =           148.500231 Angs**3


  Final internal derivatives :

--------------------------------------------------------------------------------
   No.  Atomic          a             b             c           Radius
        Label          (eV)          (eV)          (eV)        (eV/Angs)
--------------------------------------------------------------------------------
      1 K     c       0.000000      0.000000      0.000000      0.000000
      2 Zn    c       0.000000      0.000000      0.000000      0.000000
      3 F     c       0.000000      0.000000      0.000000      0.000000
      4 F     c       0.001637      0.000000      0.000000      0.000000
      5 F     s       0.000000      0.000000      0.000000      0.000000
      6 F     s      -0.001777      0.000000      0.000000      0.000000
--------------------------------------------------------------------------------
  Maximum abs         0.001777      0.000000      0.000000      0.000000
--------------------------------------------------------------------------------


  Born effective charge tensors : 

-------------------------------------------------------------------------------
  Atom             x           y             z
-------------------------------------------------------------------------------
   1 K     x       1.0553     -0.0064      0.0000
           y       0.0064      1.0553      0.0000
           z       0.0000      0.0000      1.3037
-------------------------------------------------------------------------------
   2 Zn    x       1.8361     -0.3104      0.0000
           y      -0.3104      1.8361      0.0000
           z       0.0000      0.0000      1.4044
-------------------------------------------------------------------------------
   3 F     x      -1.0045      0.0189      0.0000
           y       0.0189     -1.0045      0.0000
           z       0.0000      0.0000     -0.7078
-------------------------------------------------------------------------------
   4 F     x      -0.9434     -0.2038      0.0000
           y      -0.2038     -0.9434      0.0000
           z       0.0000      0.0000     -1.0001
-------------------------------------------------------------------------------




  Elastic Constant Matrix: (Units=GPa)

-------------------------------------------------------------------------------
  Indices      1         2         3         4         5         6    
-------------------------------------------------------------------------------
       1    145.3320   38.1089   -8.1868    0.0000    0.0000    0.0000
       2     38.1089  145.3320   -8.1868    0.0000    0.0000    0.0000
       3     -8.1868   -8.1868  219.9436    0.0000    0.0000    0.0000
       4      0.0000    0.0000    0.0000   -1.8978    0.0000    0.0000
       5      0.0000    0.0000    0.0000    0.0000   -1.8978    0.0000
       6      0.0000    0.0000    0.0000    0.0000    0.0000   30.9537
-------------------------------------------------------------------------------


  Elastic Compliance Matrix: (Units=1/GPa)

-------------------------------------------------------------------------------
  Indices      1         2         3         4         5         6    
-------------------------------------------------------------------------------
       1    0.007398 -0.001928  0.000204  0.000000  0.000000  0.000000
       2   -0.001928  0.007398  0.000204  0.000000  0.000000  0.000000
       3    0.000204  0.000204  0.004562  0.000000  0.000000  0.000000
       4    0.000000  0.000000  0.000000 -0.526927  0.000000  0.000000
       5    0.000000  0.000000  0.000000  0.000000 -0.526927  0.000000
       6    0.000000  0.000000  0.000000  0.000000  0.000000  0.032306
-------------------------------------------------------------------------------

  Mechanical properties :

-------------------------------------------------------------------------------
  Convention :                    Reuss         Voigt         Hill
-------------------------------------------------------------------------------
  Bulk  Modulus (GPa)     =      61.29266      61.56424      61.42845
  Shear Modulus (GPa)     =      -5.03165      38.02310      16.49573
-------------------------------------------------------------------------------
  Velocity S-wave (km/s)  =      -1.18033       3.24468       2.13714
  Velocity P-wave (km/s)  =       3.88758       5.57524       4.80607
-------------------------------------------------------------------------------
  Compressibility (1/GPa) =    0.01631517
-------------------------------------------------------------------------------
  Stress axis :                     x             y             z
-------------------------------------------------------------------------------
  Youngs Moduli (GPa)     =     135.17284     135.17284     219.21287
-------------------------------------------------------------------------------
  Poissons Ratio (x)      =                     0.26067      -0.04463
  Poissons Ratio (y)      =       0.26067                    -0.04463
  Poissons Ratio (z)      =      -0.02752      -0.02752
-------------------------------------------------------------------------------


  Piezoelectric Strain Matrix: (Units=C/m**2)

-------------------------------------------------------------------------------
  Indices      1         2         3         4         5         6    
-------------------------------------------------------------------------------
       x     0.00000   0.00000   0.00000   0.00000   0.00000   0.00000
       y     0.00000   0.00000   0.00000   0.00000   0.00000   0.00000
       z     0.00000   0.00000   0.00000   0.00000   0.00000   0.00000
-------------------------------------------------------------------------------


  Piezoelectric Stress Matrix: (Units=10**-11 C/N)

-------------------------------------------------------------------------------
  Indices      1         2         3         4         5         6    
-------------------------------------------------------------------------------
       x     0.00000   0.00000   0.00000   0.00000   0.00000   0.00000
       y     0.00000   0.00000   0.00000   0.00000   0.00000   0.00000
       z     0.00000   0.00000   0.00000   0.00000   0.00000   0.00000
-------------------------------------------------------------------------------


  Static dielectric constant tensor : 

-------------------------------------------------------------------------------
              x         y         z
-------------------------------------------------------------------------------
       x    19.70512   0.00000   0.00000
       y     0.00000  19.70512   0.00000
       z     0.00000   0.00000   1.17196
--------------------------------------------------------------------------------

  High frequency dielectric constant tensor : 

-------------------------------------------------------------------------------
              x         y         z
-------------------------------------------------------------------------------
       x     1.51886   0.00000   0.00000
       y     0.00000   1.51886   0.00000
       z     0.00000   0.00000   1.50107
-------------------------------------------------------------------------------

  Static refractive indices : 

-------------------------------------------------------------------------------
    1 =    1.08257      2 =    4.43904      3 =    4.43904
-------------------------------------------------------------------------------

  High frequency refractive indices : 

-------------------------------------------------------------------------------
    1 =    1.22518      2 =    1.23242      3 =    1.23242
-------------------------------------------------------------------------------


  Time to end of optimisation =       0.0489 seconds


  Peak dynamic memory used =       0.59 MB 


  Timing analysis for GULP :

--------------------------------------------------------------------------------
  Task / Subroutine                                          Time (Seconds)
--------------------------------------------------------------------------------
  Calculation of reciprocal space energy and derivatives          0.0009
  Calculation of reciprocal space energy using symmetry           0.0039
  Calculation of real space energy and derivatives                0.0038
  Calculation of real space energy using symmetry                 0.0364
  Symmetry generation of equivalent positions                     0.0004
--------------------------------------------------------------------------------
  Total CPU time                                                  0.0490
--------------------------------------------------------------------------------


  CIF file written as perov.cif                                               


  Job Finished at 14:09.07  6th April      2017                               

