********************************************************************************
*                       GENERAL UTILITY LATTICE PROGRAM                        *
*                                 Julian Gale                                  *
*                      Nanochemistry Research Institute                        *
*                           Department of Chemistry                            *
*                    Curtin University, Western Australia                      *
********************************************************************************
* Version = 4.3.2 * Last modified =  3rd March 2015                            *
********************************************************************************
*  optimise     - perform optimisation run                                     *
*  conp         - constant pressure calculation                                *
*  property     - calculate properties for final geometry                      *
********************************************************************************

  Job Started  at 14:09.07  6th April      2017                               

  Number of CPUs =     1


  Total number of configurations input =   1

********************************************************************************
*  Input for Configuration =   1                                               *
********************************************************************************

  Formula = K2Zn2F6                                                     

  Number of irreducible atoms/shells =       6


  Total number atoms/shells =      16

  Dimensionality = 3               :  Bulk   


  Symmetry :

  Crystal family                   :  Tetragonal  
  Crystal class  (Groth - 1921)    :  Ditetragonal Dipyramidal             

  Space group (centrosymmetric)    :  P 4/M B M       

  Patterson group                  :  P 4/m m m

  Cartesian lattice vectors (Angstroms) :

        4.200000    0.000000    0.000000
        0.000000    4.200000    0.000000
        0.000000    0.000000    4.200000

  Cell parameters (Angstroms/Degrees):

  a =       4.2000    alpha =  90.0000
  b =       4.2000    beta  =  90.0000
  c =       4.2000    gamma =  90.0000

  Initial cell volume =          74.088000 Angs**3

  Temperature of configuration =  0.000     K 

  Pressure of configuration =         0.000 GPa 

  Fractional coordinates of asymmetric unit :

--------------------------------------------------------------------------------
   No.  Atomic       x           y          z         Charge      Occupancy
        Label      (Frac)      (Frac)     (Frac)        (e)         (Frac)  
--------------------------------------------------------------------------------
      1 K     c    0.000000    0.000000    0.000000     1.30000    1.000000    
      2 Zn    c    0.000000    0.500000    0.000000     1.50000    1.000000    
      3 F     c    0.000000    0.500000    0.500000     0.37800    1.000000    
      4 F     c    0.227100 *  0.727100    0.000000     0.37800    1.000000    
      5 F     s    0.000000    0.500000    0.500000    -1.31133    1.000000    
      6 F     s    0.227100 *  0.727100    0.000000    -1.31133    1.000000    
--------------------------------------------------------------------------------


  Constraints : 

--------------------------------------------------------------------------------
  Constraint no.      Unconstrained     Constrained    Coefficient    Offset
                         Variable         Variable
--------------------------------------------------------------------------------
           1              Strain 1        Strain 2       1.00000      0.0000
           2                 4 x             4 y         1.00000      0.5000
           3                 6 x             6 y         1.00000      0.5000
--------------------------------------------------------------------------------


********************************************************************************
*  General input information                                                   *
********************************************************************************

  Species output for all configurations : 

--------------------------------------------------------------------------------
  Species    Type    Atomic    Atomic    Charge       Radii (Angs)     Library
                     Number     Mass       (e)     Cova   Ionic  VDW   Symbol
--------------------------------------------------------------------------------
    K        Core       19      39.10   1.300000   1.330  0.000  2.800          
    Zn       Core       30      65.39   1.500000   1.450  0.000  2.160          
    F        Core        9      19.00   0.378000   0.710  0.000  1.300          
    F        Shell       9       0.00  -1.311333   0.710  0.000  1.300          
--------------------------------------------------------------------------------


  Lattice summation method               =    Ewald          (3-D)
                                         =    Parry          (2-D)
                                         =    Saunders et al (1-D)
  Accuracy factor for lattice sums       =   12.000


  Time limit = Infinity

  Maximum range for interatomic potentials =    100000.000000 Angstroms

  General interatomic potentials :

--------------------------------------------------------------------------------
Atom  Types   Potential         A         B         C         D     Cutoffs(Ang)
  1     2                                                            Min    Max 
--------------------------------------------------------------------------------
K    c K    c Buckingham    0.219E+04 0.192      0.00      0.00     0.000 10.000
Zn   c F    s Buckingham    0.148E+04 0.266      0.00      0.00     0.000 10.000
F    s F    s Buckingham     912.     0.271      60.0      0.00     0.000 10.000
K    c F    s Buckingham    0.352E+04 0.267      0.00      0.00     0.000 10.000
F    c F    s Spring (c-s)   22.0      0.00      0.00      0.00     0.000  0.800
--------------------------------------------------------------------------------

********************************************************************************
*  Output for configuration   1                                                *
********************************************************************************


  Components of energy : 

--------------------------------------------------------------------------------
  Interatomic potentials     =         153.76699540 eV
  Monopole - monopole (real) =         -38.34941231 eV
  Monopole - monopole (recip)=         -54.43007826 eV
  Monopole - monopole (total)=         -92.77949057 eV
--------------------------------------------------------------------------------
  Total lattice energy       =          60.98750483 eV
--------------------------------------------------------------------------------
  Total lattice energy       =            5884.3619 kJ/(mole unit cells)
--------------------------------------------------------------------------------


  Number of variables =        4

  Maximum number of calculations  =          1000
  Maximum Hessian update interval =            10
  Maximum step size               =   1.000000000
  Maximum parameter tolerance     =   0.000010000
  Maximum function  tolerance     =   0.000010000
  Maximum gradient  tolerance     =   0.001000000
  Maximum gradient  component     =   0.010000000

  Symmetry constrained optimisation

  Symmetry used for second derivatives

  Cell parameters to be optimised using strains

  Newton-Raphson optimiser to be used

  BFGS hessian update to be used

  Start of bulk optimisation :

  Cycle:      0 Energy:        60.987505  Gnorm:    204.056584  CPU:    0.005
  ** Hessian calculated **
  Cycle:      1 Energy:       -57.623847  Gnorm:     19.554821  CPU:    0.012
  ** Hessian calculated **
  Cycle:      2 Energy:       -58.704532  Gnorm:      4.970576  CPU:    0.018
  Cycle:      3 Energy:       -58.769345  Gnorm:      0.924913  CPU:    0.021
  Cycle:      4 Energy:       -58.773196  Gnorm:      0.351817  CPU:    0.024
  Cycle:      5 Energy:       -58.773434  Gnorm:      0.108745  CPU:    0.027
  Cycle:      6 Energy:       -58.773505  Gnorm:      0.038571  CPU:    0.031
  Cycle:      7 Energy:       -58.773509  Gnorm:      0.001075  CPU:    0.034


  **** Optimisation achieved ****


  Final energy =     -58.77350896 eV
  Final Gnorm  =       0.00000243

  Components of energy : 

--------------------------------------------------------------------------------
  Interatomic potentials     =           7.26504680 eV
  Monopole - monopole (real) =         -24.31082753 eV
  Monopole - monopole (recip)=         -41.72772823 eV
  Monopole - monopole (total)=         -66.03855576 eV
--------------------------------------------------------------------------------
  Total lattice energy       =         -58.77350896 eV
--------------------------------------------------------------------------------
  Total lattice energy       =           -5670.7452 kJ/(mole unit cells)
--------------------------------------------------------------------------------

  Final asymmetric unit coordinates :

--------------------------------------------------------------------------------
   No.  Atomic        x           y           z         Radius
        Label       (Frac)      (Frac)      (Frac)       (Angs) 
--------------------------------------------------------------------------------
     1  K     c     0.000000    0.000000    0.000000    0.000000
     2  Zn    c     0.000000    0.500000    0.000000    0.000000
     3  F     c     0.000000    0.500000    0.500000    0.000000
     4  F     c     0.250000    0.750000    0.000000    0.000000
     5  F     s     0.000000    0.500000    0.500000    0.000000
     6  F     s     0.250000    0.750000    0.000000    0.000000
--------------------------------------------------------------------------------

  Final Cartesian lattice vectors (Angstroms) :

        6.684613    0.000000    0.000000
        0.000000    6.684613    0.000000
        0.000000    0.000000    4.028208


  Final cell parameters and derivatives :

--------------------------------------------------------------------------------
       a            6.684613 Angstrom     dE/de1(xx)     0.000006 eV/strain
       b            6.684613 Angstrom     dE/de2(yy)     0.000000 eV/strain
       c            4.028208 Angstrom     dE/de3(zz)     0.000001 eV/strain
       alpha       90.000000 Degrees      dE/de4(yz)     0.000000 eV/strain
       beta        90.000000 Degrees      dE/de5(xz)     0.000000 eV/strain
       gamma       90.000000 Degrees      dE/de6(xy)     0.000000 eV/strain
--------------------------------------------------------------------------------

  Primitive cell volume =           179.996659 Angs**3

  Density of cell =      2.979663 g/cm**3

  Non-primitive cell volume =           179.996659 Angs**3


  Final internal derivatives :

--------------------------------------------------------------------------------
   No.  Atomic          a             b             c           Radius
        Label          (eV)          (eV)          (eV)        (eV/Angs)
--------------------------------------------------------------------------------
      1 K     c       0.000000      0.000000      0.000000      0.000000
      2 Zn    c       0.000000      0.000000      0.000000      0.000000
      3 F     c       0.000000      0.000000      0.000000      0.000000
      4 F     c       0.000007      0.000000      0.000000      0.000000
      5 F     s       0.000000      0.000000      0.000000      0.000000
      6 F     s      -0.000004      0.000000      0.000000      0.000000
--------------------------------------------------------------------------------
  Maximum abs         0.000007      0.000000      0.000000      0.000000
--------------------------------------------------------------------------------


  Born effective charge tensors : 

-------------------------------------------------------------------------------
  Atom             x           y             z
-------------------------------------------------------------------------------
   1 K     x       1.0378      0.0000      0.0000
           y       0.0000      1.0378      0.0000
           z       0.0000      0.0000      1.2820
-------------------------------------------------------------------------------
   2 Zn    x       1.4870      0.0000      0.0000
           y       0.0000      1.4870      0.0000
           z       0.0000      0.0000      0.9599
-------------------------------------------------------------------------------
   3 F     x      -0.8959      0.0000      0.0000
           y       0.0000     -0.8959      0.0000
           z       0.0000      0.0000     -0.6287
-------------------------------------------------------------------------------
   4 F     x      -0.8145     -0.2403      0.0000
           y      -0.2403     -0.8145      0.0000
           z       0.0000      0.0000     -0.8066
-------------------------------------------------------------------------------




  Elastic Constant Matrix: (Units=GPa)

-------------------------------------------------------------------------------
  Indices      1         2         3         4         5         6    
-------------------------------------------------------------------------------
       1    101.0365   47.2942   -1.4594    0.0000    0.0000    0.0000
       2     47.2942  101.0365   -1.4594    0.0000    0.0000    0.0000
       3     -1.4594   -1.4594  110.2972    0.0000    0.0000    0.0000
       4      0.0000    0.0000    0.0000   -1.4594    0.0000    0.0000
       5      0.0000    0.0000    0.0000    0.0000   -1.4594    0.0000
       6      0.0000    0.0000    0.0000    0.0000    0.0000   47.2942
-------------------------------------------------------------------------------


  Elastic Compliance Matrix: (Units=1/GPa)

-------------------------------------------------------------------------------
  Indices      1         2         3         4         5         6    
-------------------------------------------------------------------------------
       1    0.012675 -0.005932  0.000089  0.000000  0.000000  0.000000
       2   -0.005932  0.012675  0.000089  0.000000  0.000000  0.000000
       3    0.000089  0.000089  0.009069  0.000000  0.000000  0.000000
       4    0.000000  0.000000  0.000000 -0.685223  0.000000  0.000000
       5    0.000000  0.000000  0.000000  0.000000 -0.685223  0.000000
       6    0.000000  0.000000  0.000000  0.000000  0.000000  0.021144
-------------------------------------------------------------------------------

  Mechanical properties :

-------------------------------------------------------------------------------
  Convention :                    Reuss         Voigt         Hill
-------------------------------------------------------------------------------
  Bulk  Modulus (GPa)     =      43.64416      44.56900      44.10658
  Shear Modulus (GPa)     =      -3.85881      26.74140      11.44130
-------------------------------------------------------------------------------
  Velocity S-wave (km/s)  =      -1.13800       2.99577       1.95954
  Velocity P-wave (km/s)  =       3.59453       5.18883       4.46344
-------------------------------------------------------------------------------
  Compressibility (1/GPa) =    0.02291257
-------------------------------------------------------------------------------
  Stress axis :                     x             y             z
-------------------------------------------------------------------------------
  Youngs Moduli (GPa)     =      78.89304      78.89304     110.26850
-------------------------------------------------------------------------------
  Poissons Ratio (x)      =                     0.46799      -0.00984
  Poissons Ratio (y)      =       0.46799                    -0.00984
  Poissons Ratio (z)      =      -0.00704      -0.00704
-------------------------------------------------------------------------------


  Piezoelectric Strain Matrix: (Units=C/m**2)

-------------------------------------------------------------------------------
  Indices      1         2         3         4         5         6    
-------------------------------------------------------------------------------
       x     0.00000   0.00000   0.00000   0.00000   0.00000   0.00000
       y     0.00000   0.00000   0.00000   0.00000   0.00000   0.00000
       z     0.00000   0.00000   0.00000   0.00000   0.00000   0.00000
-------------------------------------------------------------------------------


  Piezoelectric Stress Matrix: (Units=10**-11 C/N)

-------------------------------------------------------------------------------
  Indices      1         2         3         4         5         6    
-------------------------------------------------------------------------------
       x     0.00000   0.00000   0.00000   0.00000   0.00000   0.00000
       y     0.00000   0.00000   0.00000   0.00000   0.00000   0.00000
       z     0.00000   0.00000   0.00000   0.00000   0.00000   0.00000
-------------------------------------------------------------------------------


  Static dielectric constant tensor : 

-------------------------------------------------------------------------------
              x         y         z
-------------------------------------------------------------------------------
       x    -5.89477   0.00000   0.00000
       y     0.00000  -5.89477   0.00000
       z     0.00000   0.00000   0.77550
--------------------------------------------------------------------------------

  High frequency dielectric constant tensor : 

-------------------------------------------------------------------------------
              x         y         z
-------------------------------------------------------------------------------
       x     1.45964   0.00000   0.00000
       y     0.00000   1.45964   0.00000
       z     0.00000   0.00000   1.42371
-------------------------------------------------------------------------------

  Static refractive indices : 

-------------------------------------------------------------------------------
    1 =   -2.42791      2 =   -2.42791      3 =    0.88062
-------------------------------------------------------------------------------

  High frequency refractive indices : 

-------------------------------------------------------------------------------
    1 =    1.19319      2 =    1.20816      3 =    1.20816
-------------------------------------------------------------------------------


  Time to end of optimisation =       0.0427 seconds


  Peak dynamic memory used =       0.59 MB 


  Timing analysis for GULP :

--------------------------------------------------------------------------------
  Task / Subroutine                                          Time (Seconds)
--------------------------------------------------------------------------------
  Calculation of reciprocal space energy and derivatives          0.0008
  Calculation of reciprocal space energy using symmetry           0.0033
  Calculation of real space energy and derivatives                0.0039
  Calculation of real space energy using symmetry                 0.0307
  Symmetry generation of equivalent positions                     0.0005
--------------------------------------------------------------------------------
  Total CPU time                                                  0.0427
--------------------------------------------------------------------------------


  CIF file written as perov.cif                                               


  Job Finished at 14:09.07  6th April      2017                               

