********************************************************************************
*                       GENERAL UTILITY LATTICE PROGRAM                        *
*                                 Julian Gale                                  *
*                      Nanochemistry Research Institute                        *
*                           Department of Chemistry                            *
*                    Curtin University, Western Australia                      *
********************************************************************************
* Version = 4.3.2 * Last modified =  3rd March 2015                            *
********************************************************************************
*  optimise     - perform optimisation run                                     *
*  conp         - constant pressure calculation                                *
*  property     - calculate properties for final geometry                      *
********************************************************************************

  Job Started  at 14:09.02  6th April      2017                               

  Number of CPUs =     1


  Total number of configurations input =   1

********************************************************************************
*  Input for Configuration =   1                                               *
********************************************************************************

  Formula = K2Zn2F6                                                     

  Number of irreducible atoms/shells =       6


  Total number atoms/shells =      16

  Dimensionality = 3               :  Bulk   


  Symmetry :

  Crystal family                   :  Tetragonal  
  Crystal class  (Groth - 1921)    :  Ditetragonal Dipyramidal             

  Space group (centrosymmetric)    :  P 4/M B M       

  Patterson group                  :  P 4/m m m

  Cartesian lattice vectors (Angstroms) :

        4.200000    0.000000    0.000000
        0.000000    4.200000    0.000000
        0.000000    0.000000    4.200000

  Cell parameters (Angstroms/Degrees):

  a =       4.2000    alpha =  90.0000
  b =       4.2000    beta  =  90.0000
  c =       4.2000    gamma =  90.0000

  Initial cell volume =          74.088000 Angs**3

  Temperature of configuration =  0.000     K 

  Pressure of configuration =         0.000 GPa 

  Fractional coordinates of asymmetric unit :

--------------------------------------------------------------------------------
   No.  Atomic       x           y          z         Charge      Occupancy
        Label      (Frac)      (Frac)     (Frac)        (e)         (Frac)  
--------------------------------------------------------------------------------
      1 K     c    0.000000    0.000000    0.000000     0.60000    1.000000    
      2 Zn    c    0.000000    0.500000    0.000000     2.30000    1.000000    
      3 F     c    0.000000    0.500000    0.500000     0.37800    1.000000    
      4 F     c    0.227100 *  0.727100    0.000000     0.37800    1.000000    
      5 F     s    0.000000    0.500000    0.500000    -1.34467    1.000000    
      6 F     s    0.227100 *  0.727100    0.000000    -1.34467    1.000000    
--------------------------------------------------------------------------------


  Constraints : 

--------------------------------------------------------------------------------
  Constraint no.      Unconstrained     Constrained    Coefficient    Offset
                         Variable         Variable
--------------------------------------------------------------------------------
           1              Strain 1        Strain 2       1.00000      0.0000
           2                 4 x             4 y         1.00000      0.5000
           3                 6 x             6 y         1.00000      0.5000
--------------------------------------------------------------------------------


********************************************************************************
*  General input information                                                   *
********************************************************************************

  Species output for all configurations : 

--------------------------------------------------------------------------------
  Species    Type    Atomic    Atomic    Charge       Radii (Angs)     Library
                     Number     Mass       (e)     Cova   Ionic  VDW   Symbol
--------------------------------------------------------------------------------
    K        Core       19      39.10   0.600000   1.330  0.000  2.800          
    Zn       Core       30      65.39   2.300000   1.450  0.000  2.160          
    F        Core        9      19.00   0.378000   0.710  0.000  1.300          
    F        Shell       9       0.00  -1.344667   0.710  0.000  1.300          
--------------------------------------------------------------------------------


  Lattice summation method               =    Ewald          (3-D)
                                         =    Parry          (2-D)
                                         =    Saunders et al (1-D)
  Accuracy factor for lattice sums       =   12.000


  Time limit = Infinity

  Maximum range for interatomic potentials =    100000.000000 Angstroms

  General interatomic potentials :

--------------------------------------------------------------------------------
Atom  Types   Potential         A         B         C         D     Cutoffs(Ang)
  1     2                                                            Min    Max 
--------------------------------------------------------------------------------
K    c K    c Buckingham    0.219E+04 0.192      0.00      0.00     0.000 10.000
Zn   c F    s Buckingham    0.148E+04 0.266      0.00      0.00     0.000 10.000
F    s F    s Buckingham     912.     0.271      60.0      0.00     0.000 10.000
K    c F    s Buckingham    0.352E+04 0.267      0.00      0.00     0.000 10.000
F    c F    s Spring (c-s)   23.2      0.00      0.00      0.00     0.000  0.800
--------------------------------------------------------------------------------

********************************************************************************
*  Output for configuration   1                                                *
********************************************************************************


  Components of energy : 

--------------------------------------------------------------------------------
  Interatomic potentials     =         153.76699540 eV
  Monopole - monopole (real) =         -46.64532801 eV
  Monopole - monopole (recip)=         -70.61273328 eV
  Monopole - monopole (total)=        -117.25806129 eV
--------------------------------------------------------------------------------
  Total lattice energy       =          36.50893412 eV
--------------------------------------------------------------------------------
  Total lattice energy       =            3522.5541 kJ/(mole unit cells)
--------------------------------------------------------------------------------


  Number of variables =        4

  Maximum number of calculations  =          1000
  Maximum Hessian update interval =            10
  Maximum step size               =   1.000000000
  Maximum parameter tolerance     =   0.000010000
  Maximum function  tolerance     =   0.000010000
  Maximum gradient  tolerance     =   0.001000000
  Maximum gradient  component     =   0.010000000

  Symmetry constrained optimisation

  Symmetry used for second derivatives

  Cell parameters to be optimised using strains

  Newton-Raphson optimiser to be used

  BFGS hessian update to be used

  Start of bulk optimisation :

  Cycle:      0 Energy:        36.508934  Gnorm:    195.083887  CPU:    0.005
  ** Hessian calculated **
  Cycle:      1 Energy:       -69.876279  Gnorm:     31.649053  CPU:    0.011
  ** Hessian calculated **
  Cycle:      2 Energy:       -78.791884  Gnorm:     12.457405  CPU:    0.017
  Cycle:      3 Energy:       -79.323480  Gnorm:     12.868999  CPU:    0.021
  Cycle:      4 Energy:       -80.231461  Gnorm:     15.026190  CPU:    0.025
  Cycle:      5 Energy:       -80.587828  Gnorm:      3.604293  CPU:    0.029
  Cycle:      6 Energy:       -80.618351  Gnorm:      1.319629  CPU:    0.033
  Cycle:      7 Energy:       -80.629123  Gnorm:      0.646008  CPU:    0.036
  Cycle:      8 Energy:       -80.629663  Gnorm:      0.373666  CPU:    0.039
  Cycle:      9 Energy:       -80.629784  Gnorm:      0.060827  CPU:    0.042
  Cycle:     10 Energy:       -80.629791  Gnorm:      0.002785  CPU:    0.045
  Cycle:     11 Energy:       -80.629791  Gnorm:      0.001912  CPU:    0.048
  ** Hessian calculated **


  **** Optimisation achieved ****


  Final energy =     -80.62979108 eV
  Final Gnorm  =       0.00021126

  Components of energy : 

--------------------------------------------------------------------------------
  Interatomic potentials     =          12.76263561 eV
  Monopole - monopole (real) =         -27.04813852 eV
  Monopole - monopole (recip)=         -66.34428816 eV
  Monopole - monopole (total)=         -93.39242668 eV
--------------------------------------------------------------------------------
  Total lattice energy       =         -80.62979108 eV
--------------------------------------------------------------------------------
  Total lattice energy       =           -7779.5423 kJ/(mole unit cells)
--------------------------------------------------------------------------------

  Final asymmetric unit coordinates :

--------------------------------------------------------------------------------
   No.  Atomic        x           y           z         Radius
        Label       (Frac)      (Frac)      (Frac)       (Angs) 
--------------------------------------------------------------------------------
     1  K     c     0.000000    0.000000    0.000000    0.000000
     2  Zn    c     0.000000    0.500000    0.000000    0.000000
     3  F     c     0.000000    0.500000    0.500000    0.000000
     4  F     c     0.187143    0.687143    0.000000    0.000000
     5  F     s     0.000000    0.500000    0.500000    0.000000
     6  F     s     0.179187    0.679187    0.000000    0.000000
--------------------------------------------------------------------------------

  Final Cartesian lattice vectors (Angstroms) :

        7.101494    0.000000    0.000000
        0.000000    7.101494    0.000000
        0.000000    0.000000    3.697011


  Final cell parameters and derivatives :

--------------------------------------------------------------------------------
       a            7.101494 Angstrom     dE/de1(xx)    -0.000072 eV/strain
       b            7.101494 Angstrom     dE/de2(yy)     0.000000 eV/strain
       c            3.697011 Angstrom     dE/de3(zz)     0.000112 eV/strain
       alpha       90.000000 Degrees      dE/de4(yz)     0.000000 eV/strain
       beta        90.000000 Degrees      dE/de5(xz)     0.000000 eV/strain
       gamma       90.000000 Degrees      dE/de6(xy)     0.000000 eV/strain
--------------------------------------------------------------------------------

  Primitive cell volume =           186.444760 Angs**3

  Density of cell =      2.876613 g/cm**3

  Non-primitive cell volume =           186.444760 Angs**3


  Final internal derivatives :

--------------------------------------------------------------------------------
   No.  Atomic          a             b             c           Radius
        Label          (eV)          (eV)          (eV)        (eV/Angs)
--------------------------------------------------------------------------------
      1 K     c       0.000000      0.000000      0.000000      0.000000
      2 Zn    c       0.000000      0.000000      0.000000      0.000000
      3 F     c       0.000000      0.000000      0.000000      0.000000
      4 F     c      -0.000491      0.000000      0.000000      0.000000
      5 F     s       0.000000      0.000000      0.000000      0.000000
      6 F     s       0.000674      0.000000      0.000000      0.000000
--------------------------------------------------------------------------------
  Maximum abs         0.000674      0.000000      0.000000      0.000000
--------------------------------------------------------------------------------


  Born effective charge tensors : 

-------------------------------------------------------------------------------
  Atom             x           y             z
-------------------------------------------------------------------------------
   1 K     x       0.4942      0.0002      0.0000
           y      -0.0002      0.4942      0.0000
           z       0.0000      0.0000      0.6123
-------------------------------------------------------------------------------
   2 Zn    x       1.5678     -0.4186      0.0000
           y      -0.4186      1.5678      0.0000
           z       0.0000      0.0000      1.6156
-------------------------------------------------------------------------------
   3 F     x      -0.7161      0.0139      0.0000
           y       0.0139     -0.7161      0.0000
           z       0.0000      0.0000     -0.5290
-------------------------------------------------------------------------------
   4 F     x      -0.6729      0.0044      0.0000
           y       0.0044     -0.6729      0.0000
           z       0.0000      0.0000     -0.8495
-------------------------------------------------------------------------------




  Elastic Constant Matrix: (Units=GPa)

-------------------------------------------------------------------------------
  Indices      1         2         3         4         5         6    
-------------------------------------------------------------------------------
       1     48.8864    7.4368   -3.0025    0.0000    0.0000    0.0000
       2      7.4368   48.8864   -3.0025    0.0000    0.0000    0.0000
       3     -3.0025   -3.0025  155.5125    0.0000    0.0000    0.0000
       4      0.0000    0.0000    0.0000   -1.3832    0.0000    0.0000
       5      0.0000    0.0000    0.0000    0.0000   -1.3832    0.0000
       6      0.0000    0.0000    0.0000    0.0000    0.0000   -1.8017
-------------------------------------------------------------------------------


  Elastic Compliance Matrix: (Units=1/GPa)

-------------------------------------------------------------------------------
  Indices      1         2         3         4         5         6    
-------------------------------------------------------------------------------
       1    0.020958 -0.003167  0.000344  0.000000  0.000000  0.000000
       2   -0.003167  0.020958  0.000344  0.000000  0.000000  0.000000
       3    0.000344  0.000344  0.006444  0.000000  0.000000  0.000000
       4    0.000000  0.000000  0.000000 -0.722986  0.000000  0.000000
       5    0.000000  0.000000  0.000000  0.000000 -0.722986  0.000000
       6    0.000000  0.000000  0.000000  0.000000  0.000000 -0.555038
-------------------------------------------------------------------------------

  Mechanical properties :

-------------------------------------------------------------------------------
  Convention :                    Reuss         Voigt         Hill
-------------------------------------------------------------------------------
  Bulk  Modulus (GPa)     =      23.04135      28.46097      25.75116
  Shear Modulus (GPa)     =      -2.58635      15.87665       6.64515
-------------------------------------------------------------------------------
  Velocity S-wave (km/s)  =      -0.94821       2.34930       1.51989
  Velocity P-wave (km/s)  =       2.60981       4.15366       3.46871
-------------------------------------------------------------------------------
  Compressibility (1/GPa) =    0.04340023
-------------------------------------------------------------------------------
  Stress axis :                     x             y             z
-------------------------------------------------------------------------------
  Youngs Moduli (GPa)     =      47.71341      47.71341     155.19236
-------------------------------------------------------------------------------
  Poissons Ratio (x)      =                     0.15112      -0.05331
  Poissons Ratio (y)      =       0.15112                    -0.05331
  Poissons Ratio (z)      =      -0.01639      -0.01639
-------------------------------------------------------------------------------


  Piezoelectric Strain Matrix: (Units=C/m**2)

-------------------------------------------------------------------------------
  Indices      1         2         3         4         5         6    
-------------------------------------------------------------------------------
       x     0.00000   0.00000   0.00000   0.00000   0.00000   0.00000
       y     0.00000   0.00000   0.00000   0.00000   0.00000   0.00000
       z     0.00000   0.00000   0.00000   0.00000   0.00000   0.00000
-------------------------------------------------------------------------------


  Piezoelectric Stress Matrix: (Units=10**-11 C/N)

-------------------------------------------------------------------------------
  Indices      1         2         3         4         5         6    
-------------------------------------------------------------------------------
       x     0.00000   0.00000   0.00000   0.00000   0.00000   0.00000
       y     0.00000   0.00000   0.00000   0.00000   0.00000   0.00000
       z     0.00000   0.00000   0.00000   0.00000   0.00000   0.00000
-------------------------------------------------------------------------------


  Static dielectric constant tensor : 

-------------------------------------------------------------------------------
              x         y         z
-------------------------------------------------------------------------------
       x     4.63637   0.00000   0.00000
       y     0.00000   4.63637   0.00000
       z     0.00000   0.00000   2.54652
--------------------------------------------------------------------------------

  High frequency dielectric constant tensor : 

-------------------------------------------------------------------------------
              x         y         z
-------------------------------------------------------------------------------
       x     1.37195   0.00000   0.00000
       y     0.00000   1.37195   0.00000
       z     0.00000   0.00000   1.40418
-------------------------------------------------------------------------------

  Static refractive indices : 

-------------------------------------------------------------------------------
    1 =    1.59578      2 =    2.15322      3 =    2.15322
-------------------------------------------------------------------------------

  High frequency refractive indices : 

-------------------------------------------------------------------------------
    1 =    1.17130      2 =    1.17130      3 =    1.18498
-------------------------------------------------------------------------------


  Time to end of optimisation =       0.0590 seconds


  Peak dynamic memory used =       0.59 MB 


  Timing analysis for GULP :

--------------------------------------------------------------------------------
  Task / Subroutine                                          Time (Seconds)
--------------------------------------------------------------------------------
  Calculation of reciprocal space energy and derivatives          0.0009
  Calculation of reciprocal space energy using symmetry           0.0050
  Calculation of real space energy and derivatives                0.0039
  Calculation of real space energy using symmetry                 0.0450
  Symmetry generation of equivalent positions                     0.0005
--------------------------------------------------------------------------------
  Total CPU time                                                  0.0590
--------------------------------------------------------------------------------


  CIF file written as perov.cif                                               


  Job Finished at 14:09.02  6th April      2017                               

