********************************************************************************
*                       GENERAL UTILITY LATTICE PROGRAM                        *
*                                 Julian Gale                                  *
*                      Nanochemistry Research Institute                        *
*                           Department of Chemistry                            *
*                    Curtin University, Western Australia                      *
********************************************************************************
* Version = 4.3.2 * Last modified =  3rd March 2015                            *
********************************************************************************
*  optimise     - perform optimisation run                                     *
*  conp         - constant pressure calculation                                *
*  property     - calculate properties for final geometry                      *
********************************************************************************

  Job Started  at 14:09.05  6th April      2017                               

  Number of CPUs =     1


  Total number of configurations input =   1

********************************************************************************
*  Input for Configuration =   1                                               *
********************************************************************************

  Formula = K2Zn2F6                                                     

  Number of irreducible atoms/shells =       6


  Total number atoms/shells =      16

  Dimensionality = 3               :  Bulk   


  Symmetry :

  Crystal family                   :  Tetragonal  
  Crystal class  (Groth - 1921)    :  Ditetragonal Dipyramidal             

  Space group (centrosymmetric)    :  P 4/M B M       

  Patterson group                  :  P 4/m m m

  Cartesian lattice vectors (Angstroms) :

        4.200000    0.000000    0.000000
        0.000000    4.200000    0.000000
        0.000000    0.000000    4.200000

  Cell parameters (Angstroms/Degrees):

  a =       4.2000    alpha =  90.0000
  b =       4.2000    beta  =  90.0000
  c =       4.2000    gamma =  90.0000

  Initial cell volume =          74.088000 Angs**3

  Temperature of configuration =  0.000     K 

  Pressure of configuration =         0.000 GPa 

  Fractional coordinates of asymmetric unit :

--------------------------------------------------------------------------------
   No.  Atomic       x           y          z         Charge      Occupancy
        Label      (Frac)      (Frac)     (Frac)        (e)         (Frac)  
--------------------------------------------------------------------------------
      1 K     c    0.000000    0.000000    0.000000     1.00000    1.000000    
      2 Zn    c    0.000000    0.500000    0.000000     1.50000    1.000000    
      3 F     c    0.000000    0.500000    0.500000     0.37800    1.000000    
      4 F     c    0.227100 *  0.727100    0.000000     0.37800    1.000000    
      5 F     s    0.000000    0.500000    0.500000    -1.21133    1.000000    
      6 F     s    0.227100 *  0.727100    0.000000    -1.21133    1.000000    
--------------------------------------------------------------------------------


  Constraints : 

--------------------------------------------------------------------------------
  Constraint no.      Unconstrained     Constrained    Coefficient    Offset
                         Variable         Variable
--------------------------------------------------------------------------------
           1              Strain 1        Strain 2       1.00000      0.0000
           2                 4 x             4 y         1.00000      0.5000
           3                 6 x             6 y         1.00000      0.5000
--------------------------------------------------------------------------------


********************************************************************************
*  General input information                                                   *
********************************************************************************

  Species output for all configurations : 

--------------------------------------------------------------------------------
  Species    Type    Atomic    Atomic    Charge       Radii (Angs)     Library
                     Number     Mass       (e)     Cova   Ionic  VDW   Symbol
--------------------------------------------------------------------------------
    K        Core       19      39.10   1.000000   1.330  0.000  2.800          
    Zn       Core       30      65.39   1.500000   1.450  0.000  2.160          
    F        Core        9      19.00   0.378000   0.710  0.000  1.300          
    F        Shell       9       0.00  -1.211333   0.710  0.000  1.300          
--------------------------------------------------------------------------------


  Lattice summation method               =    Ewald          (3-D)
                                         =    Parry          (2-D)
                                         =    Saunders et al (1-D)
  Accuracy factor for lattice sums       =   12.000


  Time limit = Infinity

  Maximum range for interatomic potentials =    100000.000000 Angstroms

  General interatomic potentials :

--------------------------------------------------------------------------------
Atom  Types   Potential         A         B         C         D     Cutoffs(Ang)
  1     2                                                            Min    Max 
--------------------------------------------------------------------------------
K    c K    c Buckingham    0.219E+04 0.192      0.00      0.00     0.000 10.000
Zn   c F    s Buckingham    0.148E+04 0.266      0.00      0.00     0.000 10.000
F    s F    s Buckingham     912.     0.271      60.0      0.00     0.000 10.000
K    c F    s Buckingham    0.352E+04 0.267      0.00      0.00     0.000 10.000
F    c F    s Spring (c-s)   18.8      0.00      0.00      0.00     0.000  0.800
--------------------------------------------------------------------------------

********************************************************************************
*  Output for configuration   1                                                *
********************************************************************************


  Components of energy : 

--------------------------------------------------------------------------------
  Interatomic potentials     =         153.76699540 eV
  Monopole - monopole (real) =         -31.18685704 eV
  Monopole - monopole (recip)=         -44.35057530 eV
  Monopole - monopole (total)=         -75.53743233 eV
--------------------------------------------------------------------------------
  Total lattice energy       =          78.22956307 eV
--------------------------------------------------------------------------------
  Total lattice energy       =            7547.9570 kJ/(mole unit cells)
--------------------------------------------------------------------------------


  Number of variables =        4

  Maximum number of calculations  =          1000
  Maximum Hessian update interval =            10
  Maximum step size               =   1.000000000
  Maximum parameter tolerance     =   0.000010000
  Maximum function  tolerance     =   0.000010000
  Maximum gradient  tolerance     =   0.001000000
  Maximum gradient  component     =   0.010000000

  Symmetry constrained optimisation

  Symmetry used for second derivatives

  Cell parameters to be optimised using strains

  Newton-Raphson optimiser to be used

  BFGS hessian update to be used

  Start of bulk optimisation :

  Cycle:      0 Energy:        78.229563  Gnorm:    207.363436  CPU:    0.005
  ** Hessian calculated **
  Cycle:      1 Energy:       -46.075928  Gnorm:     22.168072  CPU:    0.012
  ** Hessian calculated **
  Cycle:      2 Energy:       -47.108693  Gnorm:      6.547415  CPU:    0.018
  Cycle:      3 Energy:       -47.217777  Gnorm:      0.678335  CPU:    0.021
  Cycle:      4 Energy:       -47.225195  Gnorm:      0.740130  CPU:    0.024
  Cycle:      5 Energy:       -47.231527  Gnorm:      0.403358  CPU:    0.028
  Cycle:      6 Energy:       -47.232423  Gnorm:      0.475479  CPU:    0.031
  Cycle:      7 Energy:       -47.233225  Gnorm:      0.155485  CPU:    0.034
  Cycle:      8 Energy:       -47.233264  Gnorm:      0.017823  CPU:    0.037
  Cycle:      9 Energy:       -47.233264  Gnorm:      0.002727  CPU:    0.040


  **** Optimisation achieved ****


  Final energy =     -47.23326422 eV
  Final Gnorm  =       0.00067548

  Components of energy : 

--------------------------------------------------------------------------------
  Interatomic potentials     =           5.71945296 eV
  Monopole - monopole (real) =          -8.55627075 eV
  Monopole - monopole (recip)=         -44.39644643 eV
  Monopole - monopole (total)=         -52.95271718 eV
--------------------------------------------------------------------------------
  Total lattice energy       =         -47.23326422 eV
--------------------------------------------------------------------------------
  Total lattice energy       =           -4557.2880 kJ/(mole unit cells)
--------------------------------------------------------------------------------

  Final asymmetric unit coordinates :

--------------------------------------------------------------------------------
   No.  Atomic        x           y           z         Radius
        Label       (Frac)      (Frac)      (Frac)       (Angs) 
--------------------------------------------------------------------------------
     1  K     c     0.000000    0.000000    0.000000    0.000000
     2  Zn    c     0.000000    0.500000    0.000000    0.000000
     3  F     c     0.000000    0.500000    0.500000    0.000000
     4  F     c     0.229873    0.729873    0.000000    0.000000
     5  F     s     0.000000    0.500000    0.500000    0.000000
     6  F     s     0.228282    0.728282    0.000000    0.000000
--------------------------------------------------------------------------------

  Final Cartesian lattice vectors (Angstroms) :

        6.951536    0.000000    0.000000
        0.000000    6.951536    0.000000
        0.000000    0.000000    4.094291


  Final cell parameters and derivatives :

--------------------------------------------------------------------------------
       a            6.951536 Angstrom     dE/de1(xx)    -0.000090 eV/strain
       b            6.951536 Angstrom     dE/de2(yy)     0.000000 eV/strain
       c            4.094291 Angstrom     dE/de3(zz)    -0.000272 eV/strain
       alpha       90.000000 Degrees      dE/de4(yz)     0.000000 eV/strain
       beta        90.000000 Degrees      dE/de5(xz)     0.000000 eV/strain
       gamma       90.000000 Degrees      dE/de6(xy)     0.000000 eV/strain
--------------------------------------------------------------------------------

  Primitive cell volume =           197.851902 Angs**3

  Density of cell =      2.710762 g/cm**3

  Non-primitive cell volume =           197.851902 Angs**3


  Final internal derivatives :

--------------------------------------------------------------------------------
   No.  Atomic          a             b             c           Radius
        Label          (eV)          (eV)          (eV)        (eV/Angs)
--------------------------------------------------------------------------------
      1 K     c       0.000000      0.000000      0.000000      0.000000
      2 Zn    c       0.000000      0.000000      0.000000      0.000000
      3 F     c       0.000000      0.000000      0.000000      0.000000
      4 F     c       0.002131      0.000000      0.000000      0.000000
      5 F     s       0.000000      0.000000      0.000000      0.000000
      6 F     s      -0.001637      0.000000      0.000000      0.000000
--------------------------------------------------------------------------------
  Maximum abs         0.002131      0.000000      0.000000      0.000000
--------------------------------------------------------------------------------


  Born effective charge tensors : 

-------------------------------------------------------------------------------
  Atom             x           y             z
-------------------------------------------------------------------------------
   1 K     x       0.7867     -0.0051      0.0000
           y       0.0051      0.7867      0.0000
           z       0.0000      0.0000      0.9970
-------------------------------------------------------------------------------
   2 Zn    x       1.4419     -0.1028      0.0000
           y      -0.1028      1.4419      0.0000
           z       0.0000      0.0000      0.9968
-------------------------------------------------------------------------------
   3 F     x      -0.7699      0.0058      0.0000
           y       0.0058     -0.7699      0.0000
           z       0.0000      0.0000     -0.5340
-------------------------------------------------------------------------------
   4 F     x      -0.7293     -0.2048      0.0000
           y      -0.2048     -0.7293      0.0000
           z       0.0000      0.0000     -0.7299
-------------------------------------------------------------------------------




  Elastic Constant Matrix: (Units=GPa)

-------------------------------------------------------------------------------
  Indices      1         2         3         4         5         6    
-------------------------------------------------------------------------------
       1     58.8359   21.0700   -3.3870    0.0000    0.0000    0.0000
       2     21.0700   58.8359   -3.3870    0.0000    0.0000    0.0000
       3     -3.3870   -3.3870   90.1694    0.0000    0.0000    0.0000
       4      0.0000    0.0000    0.0000   -0.9461    0.0000    0.0000
       5      0.0000    0.0000    0.0000    0.0000   -0.9461    0.0000
       6      0.0000    0.0000    0.0000    0.0000    0.0000   24.4783
-------------------------------------------------------------------------------


  Elastic Compliance Matrix: (Units=1/GPa)

-------------------------------------------------------------------------------
  Indices      1         2         3         4         5         6    
-------------------------------------------------------------------------------
       1    0.019517 -0.006962  0.000472  0.000000  0.000000  0.000000
       2   -0.006962  0.019517  0.000472  0.000000  0.000000  0.000000
       3    0.000472  0.000472  0.011126  0.000000  0.000000  0.000000
       4    0.000000  0.000000  0.000000 -1.056936  0.000000  0.000000
       5    0.000000  0.000000  0.000000  0.000000 -1.056936  0.000000
       6    0.000000  0.000000  0.000000  0.000000  0.000000  0.040852
-------------------------------------------------------------------------------

  Mechanical properties :

-------------------------------------------------------------------------------
  Convention :                    Reuss         Voigt         Hill
-------------------------------------------------------------------------------
  Bulk  Modulus (GPa)     =      26.23197      26.27035      26.25116
  Shear Modulus (GPa)     =      -2.50236      17.42023       7.45894
-------------------------------------------------------------------------------
  Velocity S-wave (km/s)  =      -0.96079       2.53502       1.65880
  Velocity P-wave (km/s)  =       2.90623       4.27312       3.65416
-------------------------------------------------------------------------------
  Compressibility (1/GPa) =    0.03812142
-------------------------------------------------------------------------------
  Stress axis :                     x             y             z
-------------------------------------------------------------------------------
  Youngs Moduli (GPa)     =      51.23787      51.23787      89.88228
-------------------------------------------------------------------------------
  Poissons Ratio (x)      =                     0.35672      -0.04239
  Poissons Ratio (y)      =       0.35672                    -0.04239
  Poissons Ratio (z)      =      -0.02416      -0.02416
-------------------------------------------------------------------------------


  Piezoelectric Strain Matrix: (Units=C/m**2)

-------------------------------------------------------------------------------
  Indices      1         2         3         4         5         6    
-------------------------------------------------------------------------------
       x     0.00000   0.00000   0.00000   0.00000   0.00000   0.00000
       y     0.00000   0.00000   0.00000   0.00000   0.00000   0.00000
       z     0.00000   0.00000   0.00000   0.00000   0.00000   0.00000
-------------------------------------------------------------------------------


  Piezoelectric Stress Matrix: (Units=10**-11 C/N)

-------------------------------------------------------------------------------
  Indices      1         2         3         4         5         6    
-------------------------------------------------------------------------------
       x     0.00000   0.00000   0.00000   0.00000   0.00000   0.00000
       y     0.00000   0.00000   0.00000   0.00000   0.00000   0.00000
       z     0.00000   0.00000   0.00000   0.00000   0.00000   0.00000
-------------------------------------------------------------------------------


  Static dielectric constant tensor : 

-------------------------------------------------------------------------------
              x         y         z
-------------------------------------------------------------------------------
       x     0.49771   0.00000   0.00000
       y     0.00000   0.49771   0.00000
       z     0.00000   0.00000   1.17615
--------------------------------------------------------------------------------

  High frequency dielectric constant tensor : 

-------------------------------------------------------------------------------
              x         y         z
-------------------------------------------------------------------------------
       x     1.41530   0.00000   0.00000
       y     0.00000   1.41530   0.00000
       z     0.00000   0.00000   1.38708
-------------------------------------------------------------------------------

  Static refractive indices : 

-------------------------------------------------------------------------------
    1 =    0.70548      2 =    0.70548      3 =    1.08450
-------------------------------------------------------------------------------

  High frequency refractive indices : 

-------------------------------------------------------------------------------
    1 =    1.17774      2 =    1.18967      3 =    1.18967
-------------------------------------------------------------------------------


  Time to end of optimisation =       0.0489 seconds


  Peak dynamic memory used =       0.59 MB 


  Timing analysis for GULP :

--------------------------------------------------------------------------------
  Task / Subroutine                                          Time (Seconds)
--------------------------------------------------------------------------------
  Calculation of reciprocal space energy and derivatives          0.0008
  Calculation of reciprocal space energy using symmetry           0.0037
  Calculation of real space energy and derivatives                0.0038
  Calculation of real space energy using symmetry                 0.0366
  Symmetry generation of equivalent positions                     0.0005
--------------------------------------------------------------------------------
  Total CPU time                                                  0.0490
--------------------------------------------------------------------------------


  CIF file written as perov.cif                                               


  Job Finished at 14:09.05  6th April      2017                               

