********************************************************************************
*                       GENERAL UTILITY LATTICE PROGRAM                        *
*                                 Julian Gale                                  *
*                      Nanochemistry Research Institute                        *
*                           Department of Chemistry                            *
*                    Curtin University, Western Australia                      *
********************************************************************************
* Version = 4.3.2 * Last modified =  3rd March 2015                            *
********************************************************************************
*  optimise     - perform optimisation run                                     *
*  conp         - constant pressure calculation                                *
*  property     - calculate properties for final geometry                      *
********************************************************************************

  Job Started  at 14:09.03  6th April      2017                               

  Number of CPUs =     1


  Total number of configurations input =   1

********************************************************************************
*  Input for Configuration =   1                                               *
********************************************************************************

  Formula = K2Zn2F6                                                     

  Number of irreducible atoms/shells =       6


  Total number atoms/shells =      16

  Dimensionality = 3               :  Bulk   


  Symmetry :

  Crystal family                   :  Tetragonal  
  Crystal class  (Groth - 1921)    :  Ditetragonal Dipyramidal             

  Space group (centrosymmetric)    :  P 4/M B M       

  Patterson group                  :  P 4/m m m

  Cartesian lattice vectors (Angstroms) :

        4.200000    0.000000    0.000000
        0.000000    4.200000    0.000000
        0.000000    0.000000    4.200000

  Cell parameters (Angstroms/Degrees):

  a =       4.2000    alpha =  90.0000
  b =       4.2000    beta  =  90.0000
  c =       4.2000    gamma =  90.0000

  Initial cell volume =          74.088000 Angs**3

  Temperature of configuration =  0.000     K 

  Pressure of configuration =         0.000 GPa 

  Fractional coordinates of asymmetric unit :

--------------------------------------------------------------------------------
   No.  Atomic       x           y          z         Charge      Occupancy
        Label      (Frac)      (Frac)     (Frac)        (e)         (Frac)  
--------------------------------------------------------------------------------
      1 K     c    0.000000    0.000000    0.000000     0.70000    1.000000    
      2 Zn    c    0.000000    0.500000    0.000000     2.10000    1.000000    
      3 F     c    0.000000    0.500000    0.500000     0.37800    1.000000    
      4 F     c    0.227100 *  0.727100    0.000000     0.37800    1.000000    
      5 F     s    0.000000    0.500000    0.500000    -1.31133    1.000000    
      6 F     s    0.227100 *  0.727100    0.000000    -1.31133    1.000000    
--------------------------------------------------------------------------------


  Constraints : 

--------------------------------------------------------------------------------
  Constraint no.      Unconstrained     Constrained    Coefficient    Offset
                         Variable         Variable
--------------------------------------------------------------------------------
           1              Strain 1        Strain 2       1.00000      0.0000
           2                 4 x             4 y         1.00000      0.5000
           3                 6 x             6 y         1.00000      0.5000
--------------------------------------------------------------------------------


********************************************************************************
*  General input information                                                   *
********************************************************************************

  Species output for all configurations : 

--------------------------------------------------------------------------------
  Species    Type    Atomic    Atomic    Charge       Radii (Angs)     Library
                     Number     Mass       (e)     Cova   Ionic  VDW   Symbol
--------------------------------------------------------------------------------
    K        Core       19      39.10   0.700000   1.330  0.000  2.800          
    Zn       Core       30      65.39   2.100000   1.450  0.000  2.160          
    F        Core        9      19.00   0.378000   0.710  0.000  1.300          
    F        Shell       9       0.00  -1.311333   0.710  0.000  1.300          
--------------------------------------------------------------------------------


  Lattice summation method               =    Ewald          (3-D)
                                         =    Parry          (2-D)
                                         =    Saunders et al (1-D)
  Accuracy factor for lattice sums       =   12.000


  Time limit = Infinity

  Maximum range for interatomic potentials =    100000.000000 Angstroms

  General interatomic potentials :

--------------------------------------------------------------------------------
Atom  Types   Potential         A         B         C         D     Cutoffs(Ang)
  1     2                                                            Min    Max 
--------------------------------------------------------------------------------
K    c K    c Buckingham    0.219E+04 0.192      0.00      0.00     0.000 10.000
Zn   c F    s Buckingham    0.148E+04 0.266      0.00      0.00     0.000 10.000
F    s F    s Buckingham     912.     0.271      60.0      0.00     0.000 10.000
K    c F    s Buckingham    0.352E+04 0.267      0.00      0.00     0.000 10.000
F    c F    s Spring (c-s)   22.0      0.00      0.00      0.00     0.000  0.800
--------------------------------------------------------------------------------

********************************************************************************
*  Output for configuration   1                                                *
********************************************************************************


  Components of energy : 

--------------------------------------------------------------------------------
  Interatomic potentials     =         153.76699540 eV
  Monopole - monopole (real) =         -42.24382250 eV
  Monopole - monopole (recip)=         -62.69569485 eV
  Monopole - monopole (total)=        -104.93951735 eV
--------------------------------------------------------------------------------
  Total lattice energy       =          48.82747805 eV
--------------------------------------------------------------------------------
  Total lattice energy       =            4711.1052 kJ/(mole unit cells)
--------------------------------------------------------------------------------


  Number of variables =        4

  Maximum number of calculations  =          1000
  Maximum Hessian update interval =            10
  Maximum step size               =   1.000000000
  Maximum parameter tolerance     =   0.000010000
  Maximum function  tolerance     =   0.000010000
  Maximum gradient  tolerance     =   0.001000000
  Maximum gradient  component     =   0.010000000

  Symmetry constrained optimisation

  Symmetry used for second derivatives

  Cell parameters to be optimised using strains

  Newton-Raphson optimiser to be used

  BFGS hessian update to be used

  Start of bulk optimisation :

  Cycle:      0 Energy:        48.827478  Gnorm:    198.453530  CPU:    0.005
  ** Hessian calculated **
  Cycle:      1 Energy:       -63.707275  Gnorm:     28.085704  CPU:    0.011
  ** Hessian calculated **
  Cycle:      2 Energy:       -69.372973  Gnorm:     10.165345  CPU:    0.018
  Cycle:      3 Energy:       -69.678576  Gnorm:     11.989742  CPU:    0.021
  Cycle:      4 Energy:       -70.273476  Gnorm:     10.835283  CPU:    0.025
  Cycle:      5 Energy:       -70.471268  Gnorm:      1.422908  CPU:    0.029
  Cycle:      6 Energy:       -70.490882  Gnorm:      0.761151  CPU:    0.032
  Cycle:      7 Energy:       -70.494106  Gnorm:      0.100420  CPU:    0.036
  Cycle:      8 Energy:       -70.494151  Gnorm:      0.089086  CPU:    0.039
  Cycle:      9 Energy:       -70.494160  Gnorm:      0.050772  CPU:    0.042
  Cycle:     10 Energy:       -70.494166  Gnorm:      0.013236  CPU:    0.045
  Cycle:     11 Energy:       -70.494167  Gnorm:      0.012601  CPU:    0.048
  ** Hessian calculated **


  **** Optimisation achieved ****


  Final energy =     -70.49416733 eV
  Final Gnorm  =       0.00057000

  Components of energy : 

--------------------------------------------------------------------------------
  Interatomic potentials     =          10.45223710 eV
  Monopole - monopole (real) =         -21.07747526 eV
  Monopole - monopole (recip)=         -59.86892917 eV
  Monopole - monopole (total)=         -80.94640443 eV
--------------------------------------------------------------------------------
  Total lattice energy       =         -70.49416733 eV
--------------------------------------------------------------------------------
  Total lattice energy       =           -6801.6095 kJ/(mole unit cells)
--------------------------------------------------------------------------------

  Final asymmetric unit coordinates :

--------------------------------------------------------------------------------
   No.  Atomic        x           y           z         Radius
        Label       (Frac)      (Frac)      (Frac)       (Angs) 
--------------------------------------------------------------------------------
     1  K     c     0.000000    0.000000    0.000000    0.000000
     2  Zn    c     0.000000    0.500000    0.000000    0.000000
     3  F     c     0.000000    0.500000    0.500000    0.000000
     4  F     c     0.194459    0.694459    0.000000    0.000000
     5  F     s     0.000000    0.500000    0.500000    0.000000
     6  F     s     0.187971    0.687971    0.000000    0.000000
--------------------------------------------------------------------------------

  Final Cartesian lattice vectors (Angstroms) :

        7.058910    0.000000    0.000000
        0.000000    7.058910    0.000000
        0.000000    0.000000    3.784728


  Final cell parameters and derivatives :

--------------------------------------------------------------------------------
       a            7.058910 Angstrom     dE/de1(xx)    -0.000622 eV/strain
       b            7.058910 Angstrom     dE/de2(yy)     0.000000 eV/strain
       c            3.784728 Angstrom     dE/de3(zz)    -0.000149 eV/strain
       alpha       90.000000 Degrees      dE/de4(yz)     0.000000 eV/strain
       beta        90.000000 Degrees      dE/de5(xz)     0.000000 eV/strain
       gamma       90.000000 Degrees      dE/de6(xy)     0.000000 eV/strain
--------------------------------------------------------------------------------

  Primitive cell volume =           188.586234 Angs**3

  Density of cell =      2.843948 g/cm**3

  Non-primitive cell volume =           188.586234 Angs**3


  Final internal derivatives :

--------------------------------------------------------------------------------
   No.  Atomic          a             b             c           Radius
        Label          (eV)          (eV)          (eV)        (eV/Angs)
--------------------------------------------------------------------------------
      1 K     c       0.000000      0.000000      0.000000      0.000000
      2 Zn    c       0.000000      0.000000      0.000000      0.000000
      3 F     c       0.000000      0.000000      0.000000      0.000000
      4 F     c      -0.001506      0.000000      0.000000      0.000000
      5 F     s       0.000000      0.000000      0.000000      0.000000
      6 F     s       0.001588      0.000000      0.000000      0.000000
--------------------------------------------------------------------------------
  Maximum abs         0.001588      0.000000      0.000000      0.000000
--------------------------------------------------------------------------------


  Born effective charge tensors : 

-------------------------------------------------------------------------------
  Atom             x           y             z
-------------------------------------------------------------------------------
   1 K     x       0.5743     -0.0013      0.0000
           y       0.0013      0.5743      0.0000
           z       0.0000      0.0000      0.7093
-------------------------------------------------------------------------------
   2 Zn    x       1.5403     -0.3535      0.0000
           y      -0.3535      1.5403      0.0000
           z       0.0000      0.0000      1.4570
-------------------------------------------------------------------------------
   3 F     x      -0.7330      0.0133      0.0000
           y       0.0133     -0.7330      0.0000
           z       0.0000      0.0000     -0.5259
-------------------------------------------------------------------------------
   4 F     x      -0.6908     -0.0435      0.0000
           y      -0.0435     -0.6908      0.0000
           z       0.0000      0.0000     -0.8202
-------------------------------------------------------------------------------




  Elastic Constant Matrix: (Units=GPa)

-------------------------------------------------------------------------------
  Indices      1         2         3         4         5         6    
-------------------------------------------------------------------------------
       1     52.5855   10.2509   -3.1237    0.0000    0.0000    0.0000
       2     10.2509   52.5855   -3.1237    0.0000    0.0000    0.0000
       3     -3.1237   -3.1237  138.0701    0.0000    0.0000    0.0000
       4      0.0000    0.0000    0.0000   -1.1914    0.0000    0.0000
       5      0.0000    0.0000    0.0000    0.0000   -1.1914    0.0000
       6      0.0000    0.0000    0.0000    0.0000    0.0000    1.4604
-------------------------------------------------------------------------------


  Elastic Compliance Matrix: (Units=1/GPa)

-------------------------------------------------------------------------------
  Indices      1         2         3         4         5         6    
-------------------------------------------------------------------------------
       1    0.019786 -0.003836  0.000361  0.000000  0.000000  0.000000
       2   -0.003836  0.019786  0.000361  0.000000  0.000000  0.000000
       3    0.000361  0.000361  0.007259  0.000000  0.000000  0.000000
       4    0.000000  0.000000  0.000000 -0.839316  0.000000  0.000000
       5    0.000000  0.000000  0.000000  0.000000 -0.839316  0.000000
       6    0.000000  0.000000  0.000000  0.000000  0.000000  0.684758
-------------------------------------------------------------------------------

  Mechanical properties :

-------------------------------------------------------------------------------
  Convention :                    Reuss         Voigt         Hill
-------------------------------------------------------------------------------
  Bulk  Modulus (GPa)     =      24.62880      27.91646      26.27263
  Shear Modulus (GPa)     =      -5.39211      15.76467       5.18628
-------------------------------------------------------------------------------
  Velocity S-wave (km/s)  =      -1.37695       2.35441       1.35042
  Velocity P-wave (km/s)  =       2.47630       4.14814       3.41608
-------------------------------------------------------------------------------
  Compressibility (1/GPa) =    0.04060287
-------------------------------------------------------------------------------
  Stress axis :                     x             y             z
-------------------------------------------------------------------------------
  Youngs Moduli (GPa)     =      50.54138      50.54138     137.75950
-------------------------------------------------------------------------------
  Poissons Ratio (x)      =                     0.19385      -0.04971
  Poissons Ratio (y)      =       0.19385                    -0.04971
  Poissons Ratio (z)      =      -0.01824      -0.01824
-------------------------------------------------------------------------------


  Piezoelectric Strain Matrix: (Units=C/m**2)

-------------------------------------------------------------------------------
  Indices      1         2         3         4         5         6    
-------------------------------------------------------------------------------
       x     0.00000   0.00000   0.00000   0.00000   0.00000   0.00000
       y     0.00000   0.00000   0.00000   0.00000   0.00000   0.00000
       z     0.00000   0.00000   0.00000   0.00000   0.00000   0.00000
-------------------------------------------------------------------------------


  Piezoelectric Stress Matrix: (Units=10**-11 C/N)

-------------------------------------------------------------------------------
  Indices      1         2         3         4         5         6    
-------------------------------------------------------------------------------
       x     0.00000   0.00000   0.00000   0.00000   0.00000   0.00000
       y     0.00000   0.00000   0.00000   0.00000   0.00000   0.00000
       z     0.00000   0.00000   0.00000   0.00000   0.00000   0.00000
-------------------------------------------------------------------------------


  Static dielectric constant tensor : 

-------------------------------------------------------------------------------
              x         y         z
-------------------------------------------------------------------------------
       x     6.37657   0.00000   0.00000
       y     0.00000   6.37657   0.00000
       z     0.00000   0.00000   2.17417
--------------------------------------------------------------------------------

  High frequency dielectric constant tensor : 

-------------------------------------------------------------------------------
              x         y         z
-------------------------------------------------------------------------------
       x     1.38476   0.00000   0.00000
       y     0.00000   1.38476   0.00000
       z     0.00000   0.00000   1.40061
-------------------------------------------------------------------------------

  Static refractive indices : 

-------------------------------------------------------------------------------
    1 =    1.47451      2 =    2.52519      3 =    2.52519
-------------------------------------------------------------------------------

  High frequency refractive indices : 

-------------------------------------------------------------------------------
    1 =    1.17676      2 =    1.17676      3 =    1.18347
-------------------------------------------------------------------------------


  Time to end of optimisation =       0.0595 seconds


  Peak dynamic memory used =       0.59 MB 


  Timing analysis for GULP :

--------------------------------------------------------------------------------
  Task / Subroutine                                          Time (Seconds)
--------------------------------------------------------------------------------
  Calculation of reciprocal space energy and derivatives          0.0010
  Calculation of reciprocal space energy using symmetry           0.0051
  Calculation of real space energy and derivatives                0.0040
  Calculation of real space energy using symmetry                 0.0452
  Symmetry generation of equivalent positions                     0.0005
--------------------------------------------------------------------------------
  Total CPU time                                                  0.0596
--------------------------------------------------------------------------------


  CIF file written as perov.cif                                               


  Job Finished at 14:09.03  6th April      2017                               

