********************************************************************************
*                       GENERAL UTILITY LATTICE PROGRAM                        *
*                                 Julian Gale                                  *
*                      Nanochemistry Research Institute                        *
*                           Department of Chemistry                            *
*                    Curtin University, Western Australia                      *
********************************************************************************
* Version = 4.3.2 * Last modified =  3rd March 2015                            *
********************************************************************************
*  optimise     - perform optimisation run                                     *
*  conp         - constant pressure calculation                                *
*  property     - calculate properties for final geometry                      *
********************************************************************************

  Job Started  at 13:09.57 22nd February   2017                               

  Number of CPUs =     1


  Total number of configurations input =   1

********************************************************************************
*  Input for Configuration =   1                                               *
********************************************************************************

  Formula = K2Mn2F6                                                     

  Number of irreducible atoms/shells =       6


  Total number atoms/shells =      16

  Dimensionality = 3               :  Bulk   


  Symmetry :

  Crystal family                   :  Tetragonal  
  Crystal class  (Groth - 1921)    :  Ditetragonal Dipyramidal             

  Space group (centrosymmetric)    :  I 4/M C M       

  Patterson group                  :  I 4/m m m

  Cartesian lattice vectors (Angstroms) :

       -2.100000    2.100000    2.100000
        2.100000   -2.100000    2.100000
        2.100000    2.100000   -2.100000

  Primitive cell parameters :            Full cell parameters :

  a =   3.6373    alpha = 109.4712       a =   4.2000    alpha =  90.0000
  b =   3.6373    beta  = 109.4712       b =   4.2000    beta  =  90.0000
  c =   3.6373    gamma = 109.4712       c =   4.2000    gamma =  90.0000

  Initial volumes (Angstroms**3):

  Primitive cell =          37.044000    Full cell =          74.088000

  Temperature of configuration =  0.000     K 

  Pressure of configuration =         0.000 GPa 

  Fractional coordinates of asymmetric unit :

--------------------------------------------------------------------------------
   No.  Atomic       x           y          z         Charge      Occupancy
        Label      (Frac)      (Frac)     (Frac)        (e)         (Frac)  
--------------------------------------------------------------------------------
      1 K     c    0.000000    0.500000    0.250000     0.90000    1.000000    
      2 Mn    c    0.000000    0.000000    0.000000     2.20000    1.000000    
      3 F     c    0.240600 *  0.740600    0.000000     0.37800    1.000000    
      4 F     c    0.000000    0.000000    0.250000     0.37800    1.000000    
      5 F     s    0.240600 *  0.740600    0.000000    -1.41133    1.000000    
      6 F     s    0.000000    0.000000    0.250000    -1.41133    1.000000    
--------------------------------------------------------------------------------


  Constraints : 

--------------------------------------------------------------------------------
  Constraint no.      Unconstrained     Constrained    Coefficient    Offset
                         Variable         Variable
--------------------------------------------------------------------------------
           1              Strain 1        Strain 2       1.00000      0.0000
           2                 3 x             3 y         1.00000      0.5000
           3                 5 x             5 y         1.00000      0.5000
--------------------------------------------------------------------------------


********************************************************************************
*  General input information                                                   *
********************************************************************************

  Species output for all configurations : 

--------------------------------------------------------------------------------
  Species    Type    Atomic    Atomic    Charge       Radii (Angs)     Library
                     Number     Mass       (e)     Cova   Ionic  VDW   Symbol
--------------------------------------------------------------------------------
    K        Core       19      39.10   0.900000   1.330  0.000  2.800          
    Mn       Core       25      54.94   2.200000   1.350  0.000  2.010          
    F        Core        9      19.00   0.378000   0.710  0.000  1.300          
    F        Shell       9       0.00  -1.411333   0.710  0.000  1.300          
--------------------------------------------------------------------------------


  Lattice summation method               =    Ewald          (3-D)
                                         =    Parry          (2-D)
                                         =    Saunders et al (1-D)
  Accuracy factor for lattice sums       =   12.000


  Time limit = Infinity

  Maximum range for interatomic potentials =    100000.000000 Angstroms

  General interatomic potentials :

--------------------------------------------------------------------------------
Atom  Types   Potential         A         B         C         D     Cutoffs(Ang)
  1     2                                                            Min    Max 
--------------------------------------------------------------------------------
K    c K    c Buckingham    0.219E+04 0.192      0.00      0.00     0.000 10.000
Mn   c F    s Buckingham    0.148E+04 0.266      0.00      0.00     0.000 10.000
F    s F    s Buckingham     912.     0.271      13.8      0.00     0.000 10.000
K    c F    s Buckingham    0.352E+04 0.267      0.00      0.00     0.000 10.000
F    c F    s Spring (c-s)   25.5      0.00      0.00      0.00     0.000  0.800
--------------------------------------------------------------------------------

********************************************************************************
*  Output for configuration   1                                                *
********************************************************************************


  Components of energy : 

--------------------------------------------------------------------------------
  Interatomic potentials     =         251.00594115 eV
  Monopole - monopole (real) =         -58.26179762 eV
  Monopole - monopole (recip)=         -95.74592771 eV
  Monopole - monopole (total)=        -154.00772532 eV
--------------------------------------------------------------------------------
  Total lattice energy : 
    Primitive unit cell      =          96.99821582 eV
    Non-primitive unit cell  =         193.99643164 eV
--------------------------------------------------------------------------------
  Total lattice energy (in kJmol-1): 
    Primitive unit cell      =            9358.8451 kJ/(mole unit cells)
    Non-primitive unit cell  =           18717.6901 kJ/(mole unit cells)
--------------------------------------------------------------------------------


  Number of variables =        4

  Maximum number of calculations  =          1000
  Maximum Hessian update interval =            10
  Maximum step size               =   1.000000000
  Maximum parameter tolerance     =   0.000010000
  Maximum function  tolerance     =   0.000010000
  Maximum gradient  tolerance     =   0.001000000
  Maximum gradient  component     =   0.010000000

  Symmetry constrained optimisation

  Symmetry used for second derivatives

  Cell parameters to be optimised using strains

  Newton-Raphson optimiser to be used

  BFGS hessian update to be used

  Start of bulk optimisation :

  Cycle:      0 Energy:        96.998216  Gnorm:    215.639295  CPU:    0.010
  ** Hessian calculated **
  Cycle:      1 Energy:       -86.562505  Gnorm:      5.254349  CPU:    0.032
  ** Hessian calculated **
  Cycle:      2 Energy:       -87.117943  Gnorm:      0.740963  CPU:    0.044
  Cycle:      3 Energy:       -87.133885  Gnorm:      0.466953  CPU:    0.052
  Cycle:      4 Energy:       -87.135698  Gnorm:      0.342455  CPU:    0.059
  Cycle:      5 Energy:       -87.135841  Gnorm:      0.026318  CPU:    0.067
  Cycle:      6 Energy:       -87.135842  Gnorm:      0.001300  CPU:    0.074


  **** Optimisation achieved ****


  Final energy =     -87.13584209 eV
  Final Gnorm  =       0.00007920

  Components of energy : 

--------------------------------------------------------------------------------
  Interatomic potentials     =          11.89236829 eV
  Monopole - monopole (real) =         -35.43793852 eV
  Monopole - monopole (recip)=         -63.59027186 eV
  Monopole - monopole (total)=         -99.02821038 eV
--------------------------------------------------------------------------------
  Total lattice energy : 
    Primitive unit cell      =         -87.13584209 eV
    Non-primitive unit cell  =        -174.27168418 eV
--------------------------------------------------------------------------------
  Total lattice energy (in kJmol-1): 
    Primitive unit cell      =           -8407.2768 kJ/(mole unit cells)
    Non-primitive unit cell  =          -16814.5535 kJ/(mole unit cells)
--------------------------------------------------------------------------------

  Final asymmetric unit coordinates :

--------------------------------------------------------------------------------
   No.  Atomic        x           y           z         Radius
        Label       (Frac)      (Frac)      (Frac)       (Angs) 
--------------------------------------------------------------------------------
     1  K     c     0.000000    0.500000    0.250000    0.000000
     2  Mn    c     0.000000    0.000000    0.000000    0.000000
     3  F     c     0.250001    0.750001    0.000000    0.000000
     4  F     c     0.000000    0.000000    0.250000    0.000000
     5  F     s     0.250000    0.750000    0.000000    0.000000
     6  F     s     0.000000    0.000000    0.250000    0.000000
--------------------------------------------------------------------------------

  Final Cartesian lattice vectors (Angstroms) :

       -2.824308    2.824308    3.994178
        2.824308   -2.824308    3.994178
        2.824308    2.824308   -3.994178


  Final cell parameters and derivatives :

--------------------------------------------------------------------------------
       a            5.648618 Angstrom     dE/de1(xx)    -0.000096 eV/strain
       b            5.648618 Angstrom     dE/de2(yy)     0.000000 eV/strain
       c            5.648618 Angstrom     dE/de3(zz)     0.000025 eV/strain
       alpha      120.000028 Degrees      dE/de4(yz)     0.000000 eV/strain
       beta       120.000028 Degrees      dE/de5(xz)     0.000000 eV/strain
       gamma       89.999951 Degrees      dE/de6(xy)     0.000000 eV/strain
--------------------------------------------------------------------------------

  Primitive cell volume =           127.441649 Angs**3

  Density of cell =      3.936104 g/cm**3

  Non-primitive lattice parameters :

  a    =     5.648615  b   =     5.648615  c    =     7.988355
  alpha=    90.000000  beta=    90.000000  gamma=    90.000000

  Non-primitive cell volume =           254.883297 Angs**3


  Final internal derivatives :

--------------------------------------------------------------------------------
   No.  Atomic          a             b             c           Radius
        Label          (eV)          (eV)          (eV)        (eV/Angs)
--------------------------------------------------------------------------------
      1 K     c       0.000000      0.000000      0.000000      0.000000
      2 Mn    c       0.000000      0.000000      0.000000      0.000000
      3 F     c      -0.000147      0.000000      0.000000      0.000000
      4 F     c       0.000000      0.000000      0.000000      0.000000
      5 F     s       0.000262      0.000000      0.000000      0.000000
      6 F     s       0.000000      0.000000      0.000000      0.000000
--------------------------------------------------------------------------------
  Maximum abs         0.000262      0.000000      0.000000      0.000000
--------------------------------------------------------------------------------


  Born effective charge tensors : 

-------------------------------------------------------------------------------
  Atom             x           y             z
-------------------------------------------------------------------------------
   1 K     x       0.8680      0.0000      0.0000
           y       0.0000      0.8680      0.0000
           z       0.0000      0.0000      0.8680
-------------------------------------------------------------------------------
   2 Mn    x       1.7975      0.0000      0.0000
           y       0.0000      1.7975      0.0000
           z       0.0000      0.0000      1.7975
-------------------------------------------------------------------------------
   3 F     x      -0.9119      0.0703      0.0000
           y       0.0703     -0.9119      0.0000
           z       0.0000      0.0000     -0.8416
-------------------------------------------------------------------------------
   4 F     x      -0.8416      0.0000      0.0000
           y       0.0000     -0.8416      0.0000
           z       0.0000      0.0000     -0.9822
-------------------------------------------------------------------------------




  Elastic Constant Matrix: (Units=GPa)

-------------------------------------------------------------------------------
  Indices      1         2         3         4         5         6    
-------------------------------------------------------------------------------
       1    160.6589   53.3608   53.6491    0.0000    0.0000    0.0000
       2     53.3608  160.6589   53.6491    0.0000    0.0000    0.0000
       3     53.6491   53.6491  160.3698    0.0000    0.0000    0.0000
       4      0.0000    0.0000    0.0000   53.6491    0.0000    0.0000
       5      0.0000    0.0000    0.0000    0.0000   53.6491    0.0000
       6      0.0000    0.0000    0.0000    0.0000    0.0000   53.3608
-------------------------------------------------------------------------------


  Elastic Compliance Matrix: (Units=1/GPa)

-------------------------------------------------------------------------------
  Indices      1         2         3         4         5         6    
-------------------------------------------------------------------------------
       1    0.007467 -0.001853 -0.001878  0.000000  0.000000  0.000000
       2   -0.001853  0.007467 -0.001878  0.000000  0.000000  0.000000
       3   -0.001878 -0.001878  0.007492  0.000000  0.000000  0.000000
       4    0.000000  0.000000  0.000000  0.018640  0.000000  0.000000
       5    0.000000  0.000000  0.000000  0.000000  0.018640  0.000000
       6    0.000000  0.000000  0.000000  0.000000  0.000000  0.018740
-------------------------------------------------------------------------------

  Mechanical properties :

-------------------------------------------------------------------------------
  Convention :                    Reuss         Voigt         Hill
-------------------------------------------------------------------------------
  Bulk  Modulus (GPa)     =      89.22284      89.22284      89.22284
  Shear Modulus (GPa)     =      53.53332      53.53369      53.53350
-------------------------------------------------------------------------------
  Velocity S-wave (km/s)  =       3.68790       3.68791       3.68790
  Velocity P-wave (km/s)  =       6.38764       6.38765       6.38764
-------------------------------------------------------------------------------
  Compressibility (1/GPa) =    0.01120789
-------------------------------------------------------------------------------
  Stress axis :                     x             y             z
-------------------------------------------------------------------------------
  Youngs Moduli (GPa)     =     133.92379     133.92379     133.47300
-------------------------------------------------------------------------------
  Poissons Ratio (x)      =                     0.24815       0.25067
  Poissons Ratio (y)      =       0.24815                     0.25067
  Poissons Ratio (z)      =       0.25152       0.25152
-------------------------------------------------------------------------------


  Piezoelectric Strain Matrix: (Units=C/m**2)

-------------------------------------------------------------------------------
  Indices      1         2         3         4         5         6    
-------------------------------------------------------------------------------
       x     0.00000   0.00000   0.00000   0.00000   0.00000   0.00000
       y     0.00000   0.00000   0.00000   0.00000   0.00000   0.00000
       z     0.00000   0.00000   0.00000   0.00000   0.00000   0.00000
-------------------------------------------------------------------------------


  Piezoelectric Stress Matrix: (Units=10**-11 C/N)

-------------------------------------------------------------------------------
  Indices      1         2         3         4         5         6    
-------------------------------------------------------------------------------
       x     0.00000   0.00000   0.00000   0.00000   0.00000   0.00000
       y     0.00000   0.00000   0.00000   0.00000   0.00000   0.00000
       z     0.00000   0.00000   0.00000   0.00000   0.00000   0.00000
-------------------------------------------------------------------------------


  Static dielectric constant tensor : 

-------------------------------------------------------------------------------
              x         y         z
-------------------------------------------------------------------------------
       x     3.90771   0.00000   0.00000
       y     0.00000   3.90771   0.00000
       z     0.00000   0.00000   3.90773
--------------------------------------------------------------------------------

  High frequency dielectric constant tensor : 

-------------------------------------------------------------------------------
              x         y         z
-------------------------------------------------------------------------------
       x     1.63537   0.00000   0.00000
       y     0.00000   1.63537   0.00000
       z     0.00000   0.00000   1.63537
-------------------------------------------------------------------------------

  Static refractive indices : 

-------------------------------------------------------------------------------
    1 =    1.97679      2 =    1.97679      3 =    1.97680
-------------------------------------------------------------------------------

  High frequency refractive indices : 

-------------------------------------------------------------------------------
    1 =    1.27882      2 =    1.27882      3 =    1.27882
-------------------------------------------------------------------------------


  Time to end of optimisation =       0.0902 seconds


  Peak dynamic memory used =       0.59 MB 


  Timing analysis for GULP :

--------------------------------------------------------------------------------
  Task / Subroutine                                          Time (Seconds)
--------------------------------------------------------------------------------
  Calculation of reciprocal space energy and derivatives          0.0012
  Calculation of reciprocal space energy using symmetry           0.0031
  Calculation of real space energy and derivatives                0.0067
  Calculation of real space energy using symmetry                 0.0754
  Symmetry generation of equivalent positions                     0.0004
--------------------------------------------------------------------------------
  Total CPU time                                                  0.0903
--------------------------------------------------------------------------------


  CIF file written as perov.cif                                               


  Job Finished at 13:09.57 22nd February   2017                               

