********************************************************************************
*                       GENERAL UTILITY LATTICE PROGRAM                        *
*                                 Julian Gale                                  *
*                      Nanochemistry Research Institute                        *
*                           Department of Chemistry                            *
*                    Curtin University, Western Australia                      *
********************************************************************************
* Version = 4.3.2 * Last modified =  3rd March 2015                            *
********************************************************************************
*  optimise     - perform optimisation run                                     *
*  conp         - constant pressure calculation                                *
*  property     - calculate properties for final geometry                      *
********************************************************************************

  Job Started  at 13:09.59 22nd February   2017                               

  Number of CPUs =     1


  Total number of configurations input =   1

********************************************************************************
*  Input for Configuration =   1                                               *
********************************************************************************

  Formula = K2Mn2F6                                                     

  Number of irreducible atoms/shells =       6


  Total number atoms/shells =      16

  Dimensionality = 3               :  Bulk   


  Symmetry :

  Crystal family                   :  Tetragonal  
  Crystal class  (Groth - 1921)    :  Ditetragonal Dipyramidal             

  Space group (centrosymmetric)    :  I 4/M C M       

  Patterson group                  :  I 4/m m m

  Cartesian lattice vectors (Angstroms) :

       -2.100000    2.100000    2.100000
        2.100000   -2.100000    2.100000
        2.100000    2.100000   -2.100000

  Primitive cell parameters :            Full cell parameters :

  a =   3.6373    alpha = 109.4712       a =   4.2000    alpha =  90.0000
  b =   3.6373    beta  = 109.4712       b =   4.2000    beta  =  90.0000
  c =   3.6373    gamma = 109.4712       c =   4.2000    gamma =  90.0000

  Initial volumes (Angstroms**3):

  Primitive cell =          37.044000    Full cell =          74.088000

  Temperature of configuration =  0.000     K 

  Pressure of configuration =         0.000 GPa 

  Fractional coordinates of asymmetric unit :

--------------------------------------------------------------------------------
   No.  Atomic       x           y          z         Charge      Occupancy
        Label      (Frac)      (Frac)     (Frac)        (e)         (Frac)  
--------------------------------------------------------------------------------
      1 K     c    0.000000    0.500000    0.250000     1.10000    1.000000    
      2 Mn    c    0.000000    0.000000    0.000000     2.00000    1.000000    
      3 F     c    0.240600 *  0.740600    0.000000     0.37800    1.000000    
      4 F     c    0.000000    0.000000    0.250000     0.37800    1.000000    
      5 F     s    0.240600 *  0.740600    0.000000    -1.41133    1.000000    
      6 F     s    0.000000    0.000000    0.250000    -1.41133    1.000000    
--------------------------------------------------------------------------------


  Constraints : 

--------------------------------------------------------------------------------
  Constraint no.      Unconstrained     Constrained    Coefficient    Offset
                         Variable         Variable
--------------------------------------------------------------------------------
           1              Strain 1        Strain 2       1.00000      0.0000
           2                 3 x             3 y         1.00000      0.5000
           3                 5 x             5 y         1.00000      0.5000
--------------------------------------------------------------------------------


********************************************************************************
*  General input information                                                   *
********************************************************************************

  Species output for all configurations : 

--------------------------------------------------------------------------------
  Species    Type    Atomic    Atomic    Charge       Radii (Angs)     Library
                     Number     Mass       (e)     Cova   Ionic  VDW   Symbol
--------------------------------------------------------------------------------
    K        Core       19      39.10   1.100000   1.330  0.000  2.800          
    Mn       Core       25      54.94   2.000000   1.350  0.000  2.010          
    F        Core        9      19.00   0.378000   0.710  0.000  1.300          
    F        Shell       9       0.00  -1.411333   0.710  0.000  1.300          
--------------------------------------------------------------------------------


  Lattice summation method               =    Ewald          (3-D)
                                         =    Parry          (2-D)
                                         =    Saunders et al (1-D)
  Accuracy factor for lattice sums       =   12.000


  Time limit = Infinity

  Maximum range for interatomic potentials =    100000.000000 Angstroms

  General interatomic potentials :

--------------------------------------------------------------------------------
Atom  Types   Potential         A         B         C         D     Cutoffs(Ang)
  1     2                                                            Min    Max 
--------------------------------------------------------------------------------
K    c K    c Buckingham    0.219E+04 0.192      0.00      0.00     0.000 10.000
Mn   c F    s Buckingham    0.148E+04 0.266      0.00      0.00     0.000 10.000
F    s F    s Buckingham     912.     0.271      13.8      0.00     0.000 10.000
K    c F    s Buckingham    0.352E+04 0.267      0.00      0.00     0.000 10.000
F    c F    s Spring (c-s)   25.5      0.00      0.00      0.00     0.000  0.800
--------------------------------------------------------------------------------

********************************************************************************
*  Output for configuration   1                                                *
********************************************************************************


  Components of energy : 

--------------------------------------------------------------------------------
  Interatomic potentials     =         251.00594115 eV
  Monopole - monopole (real) =         -54.37351510 eV
  Monopole - monopole (recip)=         -91.00069549 eV
  Monopole - monopole (total)=        -145.37421059 eV
--------------------------------------------------------------------------------
  Total lattice energy : 
    Primitive unit cell      =         105.63173055 eV
    Non-primitive unit cell  =         211.26346111 eV
--------------------------------------------------------------------------------
  Total lattice energy (in kJmol-1): 
    Primitive unit cell      =           10191.8473 kJ/(mole unit cells)
    Non-primitive unit cell  =           20383.6945 kJ/(mole unit cells)
--------------------------------------------------------------------------------


  Number of variables =        4

  Maximum number of calculations  =          1000
  Maximum Hessian update interval =            10
  Maximum step size               =   1.000000000
  Maximum parameter tolerance     =   0.000010000
  Maximum function  tolerance     =   0.000010000
  Maximum gradient  tolerance     =   0.001000000
  Maximum gradient  component     =   0.010000000

  Symmetry constrained optimisation

  Symmetry used for second derivatives

  Cell parameters to be optimised using strains

  Newton-Raphson optimiser to be used

  BFGS hessian update to be used

  Start of bulk optimisation :

  Cycle:      0 Energy:       105.631731  Gnorm:    216.892932  CPU:    0.010
  ** Hessian calculated **
  Cycle:      1 Energy:       -81.129164  Gnorm:      5.820020  CPU:    0.032
  ** Hessian calculated **
  Cycle:      2 Energy:       -81.741553  Gnorm:      1.243739  CPU:    0.044
  Cycle:      3 Energy:       -81.753129  Gnorm:      0.892905  CPU:    0.052
  Cycle:      4 Energy:       -81.754822  Gnorm:      0.283380  CPU:    0.060
  Cycle:      5 Energy:       -81.755061  Gnorm:      0.061745  CPU:    0.067
  Cycle:      6 Energy:       -81.755068  Gnorm:      0.003443  CPU:    0.075


  **** Optimisation achieved ****


  Final energy =     -81.75506777 eV
  Final Gnorm  =       0.00002610

  Components of energy : 

--------------------------------------------------------------------------------
  Interatomic potentials     =          11.06185305 eV
  Monopole - monopole (real) =         -32.90366963 eV
  Monopole - monopole (recip)=         -59.91325118 eV
  Monopole - monopole (total)=         -92.81692081 eV
--------------------------------------------------------------------------------
  Total lattice energy : 
    Primitive unit cell      =         -81.75506777 eV
    Non-primitive unit cell  =        -163.51013553 eV
--------------------------------------------------------------------------------
  Total lattice energy (in kJmol-1): 
    Primitive unit cell      =           -7888.1143 kJ/(mole unit cells)
    Non-primitive unit cell  =          -15776.2286 kJ/(mole unit cells)
--------------------------------------------------------------------------------

  Final asymmetric unit coordinates :

--------------------------------------------------------------------------------
   No.  Atomic        x           y           z         Radius
        Label       (Frac)      (Frac)      (Frac)       (Angs) 
--------------------------------------------------------------------------------
     1  K     c     0.000000    0.500000    0.250000    0.000000
     2  Mn    c     0.000000    0.000000    0.000000    0.000000
     3  F     c     0.250000    0.750000    0.000000    0.000000
     4  F     c     0.000000    0.000000    0.250000    0.000000
     5  F     s     0.250000    0.750000    0.000000    0.000000
     6  F     s     0.000000    0.000000    0.250000    0.000000
--------------------------------------------------------------------------------

  Final Cartesian lattice vectors (Angstroms) :

       -2.848876    2.848876    4.028918
        2.848876   -2.848876    4.028918
        2.848876    2.848876   -4.028918


  Final cell parameters and derivatives :

--------------------------------------------------------------------------------
       a            5.697751 Angstrom     dE/de1(xx)     0.000097 eV/strain
       b            5.697751 Angstrom     dE/de2(yy)     0.000000 eV/strain
       c            5.697751 Angstrom     dE/de3(zz)     0.000031 eV/strain
       alpha      120.000000 Degrees      dE/de4(yz)     0.000000 eV/strain
       beta       120.000000 Degrees      dE/de5(xz)     0.000000 eV/strain
       gamma       90.000012 Degrees      dE/de6(xy)     0.000000 eV/strain
--------------------------------------------------------------------------------

  Primitive cell volume =           130.796298 Angs**3

  Density of cell =      3.835151 g/cm**3

  Non-primitive lattice parameters :

  a    =     5.697752  b   =     5.697752  c    =     8.057836
  alpha=    90.000000  beta=    90.000000  gamma=    90.000000

  Non-primitive cell volume =           261.592597 Angs**3


  Final internal derivatives :

--------------------------------------------------------------------------------
   No.  Atomic          a             b             c           Radius
        Label          (eV)          (eV)          (eV)        (eV/Angs)
--------------------------------------------------------------------------------
      1 K     c       0.000000      0.000000      0.000000      0.000000
      2 Mn    c       0.000000      0.000000      0.000000      0.000000
      3 F     c       0.000023      0.000000      0.000000      0.000000
      4 F     c       0.000000      0.000000      0.000000      0.000000
      5 F     s      -0.000001      0.000000      0.000000      0.000000
      6 F     s       0.000000      0.000000      0.000000      0.000000
--------------------------------------------------------------------------------
  Maximum abs         0.000023      0.000000      0.000000      0.000000
--------------------------------------------------------------------------------


  Born effective charge tensors : 

-------------------------------------------------------------------------------
  Atom             x           y             z
-------------------------------------------------------------------------------
   1 K     x       1.1231      0.0000      0.0000
           y       0.0000      1.1231      0.0000
           z       0.0000      0.0000      1.1231
-------------------------------------------------------------------------------
   2 Mn    x       1.5755      0.0000      0.0000
           y       0.0000      1.5755      0.0000
           z       0.0000      0.0000      1.5755
-------------------------------------------------------------------------------
   3 F     x      -0.9050      0.0164      0.0000
           y       0.0164     -0.9050      0.0000
           z       0.0000      0.0000     -0.8886
-------------------------------------------------------------------------------
   4 F     x      -0.8886      0.0000      0.0000
           y       0.0000     -0.8886      0.0000
           z       0.0000      0.0000     -0.9214
-------------------------------------------------------------------------------




  Elastic Constant Matrix: (Units=GPa)

-------------------------------------------------------------------------------
  Indices      1         2         3         4         5         6    
-------------------------------------------------------------------------------
       1    147.0672   52.1592   47.4539    0.0000    0.0000    0.0000
       2     52.1592  147.0672   47.4539    0.0000    0.0000    0.0000
       3     47.4539   47.4539  151.7726    0.0000    0.0000    0.0000
       4      0.0000    0.0000    0.0000   47.4540    0.0000    0.0000
       5      0.0000    0.0000    0.0000    0.0000   47.4540    0.0000
       6      0.0000    0.0000    0.0000    0.0000    0.0000   52.1592
-------------------------------------------------------------------------------


  Elastic Compliance Matrix: (Units=1/GPa)

-------------------------------------------------------------------------------
  Indices      1         2         3         4         5         6    
-------------------------------------------------------------------------------
       1    0.008217 -0.002319 -0.001844  0.000000  0.000000  0.000000
       2   -0.002319  0.008217 -0.001844  0.000000  0.000000  0.000000
       3   -0.001844 -0.001844  0.007742  0.000000  0.000000  0.000000
       4    0.000000  0.000000  0.000000  0.021073  0.000000  0.000000
       5    0.000000  0.000000  0.000000  0.000000  0.021073  0.000000
       6    0.000000  0.000000  0.000000  0.000000  0.000000  0.019172
-------------------------------------------------------------------------------

  Mechanical properties :

-------------------------------------------------------------------------------
  Convention :                    Reuss         Voigt         Hill
-------------------------------------------------------------------------------
  Bulk  Modulus (GPa)     =      82.22678      82.22678      82.22678
  Shear Modulus (GPa)     =      49.23042      49.33610      49.28326
-------------------------------------------------------------------------------
  Velocity S-wave (km/s)  =       3.58282       3.58667       3.58475
  Velocity P-wave (km/s)  =       6.20933       6.21229       6.21081
-------------------------------------------------------------------------------
  Compressibility (1/GPa) =    0.01216149
-------------------------------------------------------------------------------
  Stress axis :                     x             y             z
-------------------------------------------------------------------------------
  Youngs Moduli (GPa)     =     121.69583     121.69583     129.16640
-------------------------------------------------------------------------------
  Poissons Ratio (x)      =                     0.28225       0.23819
  Poissons Ratio (y)      =       0.28225                     0.23819
  Poissons Ratio (z)      =       0.22441       0.22441
-------------------------------------------------------------------------------


  Piezoelectric Strain Matrix: (Units=C/m**2)

-------------------------------------------------------------------------------
  Indices      1         2         3         4         5         6    
-------------------------------------------------------------------------------
       x     0.00000   0.00000   0.00000   0.00000   0.00000   0.00000
       y     0.00000   0.00000   0.00000   0.00000   0.00000   0.00000
       z     0.00000   0.00000   0.00000   0.00000   0.00000   0.00000
-------------------------------------------------------------------------------


  Piezoelectric Stress Matrix: (Units=10**-11 C/N)

-------------------------------------------------------------------------------
  Indices      1         2         3         4         5         6    
-------------------------------------------------------------------------------
       x     0.00000   0.00000   0.00000   0.00000   0.00000   0.00000
       y     0.00000   0.00000   0.00000   0.00000   0.00000   0.00000
       z     0.00000   0.00000   0.00000   0.00000   0.00000   0.00000
-------------------------------------------------------------------------------


  Static dielectric constant tensor : 

-------------------------------------------------------------------------------
              x         y         z
-------------------------------------------------------------------------------
       x     5.01322   0.00000   0.00000
       y     0.00000   5.01322   0.00000
       z     0.00000   0.00000   5.01321
--------------------------------------------------------------------------------

  High frequency dielectric constant tensor : 

-------------------------------------------------------------------------------
              x         y         z
-------------------------------------------------------------------------------
       x     1.62274   0.00000   0.00000
       y     0.00000   1.62274   0.00000
       z     0.00000   0.00000   1.62274
-------------------------------------------------------------------------------

  Static refractive indices : 

-------------------------------------------------------------------------------
    1 =    2.23902      2 =    2.23902      3 =    2.23902
-------------------------------------------------------------------------------

  High frequency refractive indices : 

-------------------------------------------------------------------------------
    1 =    1.27387      2 =    1.27387      3 =    1.27387
-------------------------------------------------------------------------------


  Time to end of optimisation =       0.0906 seconds


  Peak dynamic memory used =       0.59 MB 


  Timing analysis for GULP :

--------------------------------------------------------------------------------
  Task / Subroutine                                          Time (Seconds)
--------------------------------------------------------------------------------
  Calculation of reciprocal space energy and derivatives          0.0012
  Calculation of reciprocal space energy using symmetry           0.0031
  Calculation of real space energy and derivatives                0.0066
  Calculation of real space energy using symmetry                 0.0759
  Symmetry generation of equivalent positions                     0.0004
--------------------------------------------------------------------------------
  Total CPU time                                                  0.0907
--------------------------------------------------------------------------------


  CIF file written as perov.cif                                               


  Job Finished at 13:09.59 22nd February   2017                               

