********************************************************************************
*                       GENERAL UTILITY LATTICE PROGRAM                        *
*                                 Julian Gale                                  *
*                      Nanochemistry Research Institute                        *
*                           Department of Chemistry                            *
*                    Curtin University, Western Australia                      *
********************************************************************************
* Version = 4.3.2 * Last modified =  3rd March 2015                            *
********************************************************************************
*  optimise     - perform optimisation run                                     *
*  conp         - constant pressure calculation                                *
*  property     - calculate properties for final geometry                      *
********************************************************************************

  Job Started  at 13:09.52 22nd February   2017                               

  Number of CPUs =     1


  Total number of configurations input =   1

********************************************************************************
*  Input for Configuration =   1                                               *
********************************************************************************

  Formula = K2Mn2F6                                                     

  Number of irreducible atoms/shells =       6


  Total number atoms/shells =      16

  Dimensionality = 3               :  Bulk   


  Symmetry :

  Crystal family                   :  Tetragonal  
  Crystal class  (Groth - 1921)    :  Ditetragonal Dipyramidal             

  Space group (centrosymmetric)    :  I 4/M C M       

  Patterson group                  :  I 4/m m m

  Cartesian lattice vectors (Angstroms) :

       -2.100000    2.100000    2.100000
        2.100000   -2.100000    2.100000
        2.100000    2.100000   -2.100000

  Primitive cell parameters :            Full cell parameters :

  a =   3.6373    alpha = 109.4712       a =   4.2000    alpha =  90.0000
  b =   3.6373    beta  = 109.4712       b =   4.2000    beta  =  90.0000
  c =   3.6373    gamma = 109.4712       c =   4.2000    gamma =  90.0000

  Initial volumes (Angstroms**3):

  Primitive cell =          37.044000    Full cell =          74.088000

  Temperature of configuration =  0.000     K 

  Pressure of configuration =         0.000 GPa 

  Fractional coordinates of asymmetric unit :

--------------------------------------------------------------------------------
   No.  Atomic       x           y          z         Charge      Occupancy
        Label      (Frac)      (Frac)     (Frac)        (e)         (Frac)  
--------------------------------------------------------------------------------
      1 K     c    0.000000    0.500000    0.250000     0.50000    1.000000    
      2 Mn    c    0.000000    0.000000    0.000000     1.80000    1.000000    
      3 F     c    0.240600 *  0.740600    0.000000     0.37800    1.000000    
      4 F     c    0.000000    0.000000    0.250000     0.37800    1.000000    
      5 F     s    0.240600 *  0.740600    0.000000    -1.14467    1.000000    
      6 F     s    0.000000    0.000000    0.250000    -1.14467    1.000000    
--------------------------------------------------------------------------------


  Constraints : 

--------------------------------------------------------------------------------
  Constraint no.      Unconstrained     Constrained    Coefficient    Offset
                         Variable         Variable
--------------------------------------------------------------------------------
           1              Strain 1        Strain 2       1.00000      0.0000
           2                 3 x             3 y         1.00000      0.5000
           3                 5 x             5 y         1.00000      0.5000
--------------------------------------------------------------------------------


********************************************************************************
*  General input information                                                   *
********************************************************************************

  Species output for all configurations : 

--------------------------------------------------------------------------------
  Species    Type    Atomic    Atomic    Charge       Radii (Angs)     Library
                     Number     Mass       (e)     Cova   Ionic  VDW   Symbol
--------------------------------------------------------------------------------
    K        Core       19      39.10   0.500000   1.330  0.000  2.800          
    Mn       Core       25      54.94   1.800000   1.350  0.000  2.010          
    F        Core        9      19.00   0.378000   0.710  0.000  1.300          
    F        Shell       9       0.00  -1.144667   0.710  0.000  1.300          
--------------------------------------------------------------------------------


  Lattice summation method               =    Ewald          (3-D)
                                         =    Parry          (2-D)
                                         =    Saunders et al (1-D)
  Accuracy factor for lattice sums       =   12.000


  Time limit = Infinity

  Maximum range for interatomic potentials =    100000.000000 Angstroms

  General interatomic potentials :

--------------------------------------------------------------------------------
Atom  Types   Potential         A         B         C         D     Cutoffs(Ang)
  1     2                                                            Min    Max 
--------------------------------------------------------------------------------
K    c K    c Buckingham    0.219E+04 0.192      0.00      0.00     0.000 10.000
Mn   c F    s Buckingham    0.148E+04 0.266      0.00      0.00     0.000 10.000
F    s F    s Buckingham     912.     0.271      13.8      0.00     0.000 10.000
K    c F    s Buckingham    0.352E+04 0.267      0.00      0.00     0.000 10.000
F    c F    s Spring (c-s)   16.8      0.00      0.00      0.00     0.000  0.800
--------------------------------------------------------------------------------

********************************************************************************
*  Output for configuration   1                                                *
********************************************************************************


  Components of energy : 

--------------------------------------------------------------------------------
  Interatomic potentials     =         251.00594115 eV
  Monopole - monopole (real) =         -34.54787346 eV
  Monopole - monopole (recip)=         -56.65609726 eV
  Monopole - monopole (total)=         -91.20397072 eV
--------------------------------------------------------------------------------
  Total lattice energy : 
    Primitive unit cell      =         159.80197042 eV
    Non-primitive unit cell  =         319.60394085 eV
--------------------------------------------------------------------------------
  Total lattice energy (in kJmol-1): 
    Primitive unit cell      =           15418.4473 kJ/(mole unit cells)
    Non-primitive unit cell  =           30836.8947 kJ/(mole unit cells)
--------------------------------------------------------------------------------


  Number of variables =        4

  Maximum number of calculations  =          1000
  Maximum Hessian update interval =            10
  Maximum step size               =   1.000000000
  Maximum parameter tolerance     =   0.000010000
  Maximum function  tolerance     =   0.000010000
  Maximum gradient  tolerance     =   0.001000000
  Maximum gradient  component     =   0.010000000

  Symmetry constrained optimisation

  Symmetry used for second derivatives

  Cell parameters to be optimised using strains

  Newton-Raphson optimiser to be used

  BFGS hessian update to be used

  Start of bulk optimisation :

  Cycle:      0 Energy:       159.801970  Gnorm:    226.869913  CPU:    0.009
  ** Hessian calculated **
  Cycle:      1 Energy:       -46.673096  Gnorm:      8.039600  CPU:    0.031
  ** Hessian calculated **
  Cycle:      2 Energy:       -48.093471  Gnorm:      4.056659  CPU:    0.044
  Cycle:      3 Energy:       -48.168365  Gnorm:      0.841831  CPU:    0.053
  Cycle:      4 Energy:       -48.178935  Gnorm:      0.219524  CPU:    0.060
  Cycle:      5 Energy:       -48.181018  Gnorm:      0.064480  CPU:    0.068
  Cycle:      6 Energy:       -48.181143  Gnorm:      0.033555  CPU:    0.075
  Cycle:      7 Energy:       -48.181146  Gnorm:      0.002031  CPU:    0.083


  **** Optimisation achieved ****


  Final energy =     -48.18114635 eV
  Final Gnorm  =       0.00009227

  Components of energy : 

--------------------------------------------------------------------------------
  Interatomic potentials     =           6.07397147 eV
  Monopole - monopole (real) =         -19.40976930 eV
  Monopole - monopole (recip)=         -34.84534852 eV
  Monopole - monopole (total)=         -54.25511782 eV
--------------------------------------------------------------------------------
  Total lattice energy : 
    Primitive unit cell      =         -48.18114635 eV
    Non-primitive unit cell  =         -96.36229270 eV
--------------------------------------------------------------------------------
  Total lattice energy (in kJmol-1): 
    Primitive unit cell      =           -4648.7441 kJ/(mole unit cells)
    Non-primitive unit cell  =           -9297.4882 kJ/(mole unit cells)
--------------------------------------------------------------------------------

  Final asymmetric unit coordinates :

--------------------------------------------------------------------------------
   No.  Atomic        x           y           z         Radius
        Label       (Frac)      (Frac)      (Frac)       (Angs) 
--------------------------------------------------------------------------------
     1  K     c     0.000000    0.500000    0.250000    0.000000
     2  Mn    c     0.000000    0.000000    0.000000    0.000000
     3  F     c     0.249999    0.749999    0.000000    0.000000
     4  F     c     0.000000    0.000000    0.250000    0.000000
     5  F     s     0.249999    0.749999    0.000000    0.000000
     6  F     s     0.000000    0.000000    0.250000    0.000000
--------------------------------------------------------------------------------

  Final Cartesian lattice vectors (Angstroms) :

       -3.053236    3.053236    4.317924
        3.053236   -3.053236    4.317924
        3.053236    3.053236   -4.317924


  Final cell parameters and derivatives :

--------------------------------------------------------------------------------
       a            6.106469 Angstrom     dE/de1(xx)     0.000174 eV/strain
       b            6.106469 Angstrom     dE/de2(yy)     0.000000 eV/strain
       c            6.106469 Angstrom     dE/de3(zz)     0.000034 eV/strain
       alpha      119.999972 Degrees      dE/de4(yz)     0.000000 eV/strain
       beta       119.999972 Degrees      dE/de5(xz)     0.000000 eV/strain
       gamma       90.000049 Degrees      dE/de6(xy)     0.000000 eV/strain
--------------------------------------------------------------------------------

  Primitive cell volume =           161.011024 Angs**3

  Density of cell =      3.115461 g/cm**3

  Non-primitive lattice parameters :

  a    =     6.106471  b   =     6.106471  c    =     8.635847
  alpha=    90.000000  beta=    90.000000  gamma=    90.000000

  Non-primitive cell volume =           322.022047 Angs**3


  Final internal derivatives :

--------------------------------------------------------------------------------
   No.  Atomic          a             b             c           Radius
        Label          (eV)          (eV)          (eV)        (eV/Angs)
--------------------------------------------------------------------------------
      1 K     c       0.000000      0.000000      0.000000      0.000000
      2 Mn    c       0.000000      0.000000      0.000000      0.000000
      3 F     c       0.000148      0.000000      0.000000      0.000000
      4 F     c       0.000000      0.000000      0.000000      0.000000
      5 F     s      -0.000288      0.000000      0.000000      0.000000
      6 F     s       0.000000      0.000000      0.000000      0.000000
--------------------------------------------------------------------------------
  Maximum abs         0.000288      0.000000      0.000000      0.000000
--------------------------------------------------------------------------------


  Born effective charge tensors : 

-------------------------------------------------------------------------------
  Atom             x           y             z
-------------------------------------------------------------------------------
   1 K     x       0.4671      0.0000      0.0000
           y       0.0000      0.4671      0.0000
           z       0.0000      0.0000      0.4671
-------------------------------------------------------------------------------
   2 Mn    x       1.4962      0.0000      0.0000
           y       0.0000      1.4962      0.0000
           z       0.0000      0.0000      1.4962
-------------------------------------------------------------------------------
   3 F     x      -0.6707      0.0489      0.0000
           y       0.0489     -0.6707      0.0000
           z       0.0000      0.0000     -0.6218
-------------------------------------------------------------------------------
   4 F     x      -0.6218      0.0000      0.0000
           y       0.0000     -0.6218      0.0000
           z       0.0000      0.0000     -0.7196
-------------------------------------------------------------------------------




  Elastic Constant Matrix: (Units=GPa)

-------------------------------------------------------------------------------
  Indices      1         2         3         4         5         6    
-------------------------------------------------------------------------------
       1     73.5969   31.2624   21.1672    0.0000    0.0000    0.0000
       2     31.2624   73.5969   21.1672    0.0000    0.0000    0.0000
       3     21.1672   21.1672   83.6926    0.0000    0.0000    0.0000
       4      0.0000    0.0000    0.0000   21.1672    0.0000    0.0000
       5      0.0000    0.0000    0.0000    0.0000   21.1672    0.0000
       6      0.0000    0.0000    0.0000    0.0000    0.0000   31.2625
-------------------------------------------------------------------------------


  Elastic Compliance Matrix: (Units=1/GPa)

-------------------------------------------------------------------------------
  Indices      1         2         3         4         5         6    
-------------------------------------------------------------------------------
       1    0.017121 -0.006500 -0.002686  0.000000  0.000000  0.000000
       2   -0.006500  0.017121 -0.002686  0.000000  0.000000  0.000000
       3   -0.002686 -0.002686  0.013307  0.000000  0.000000  0.000000
       4    0.000000  0.000000  0.000000  0.047243  0.000000  0.000000
       5    0.000000  0.000000  0.000000  0.000000  0.047243  0.000000
       6    0.000000  0.000000  0.000000  0.000000  0.000000  0.031987
-------------------------------------------------------------------------------

  Mechanical properties :

-------------------------------------------------------------------------------
  Convention :                    Reuss         Voigt         Hill
-------------------------------------------------------------------------------
  Bulk  Modulus (GPa)     =      42.00886      42.00886      42.00886
  Shear Modulus (GPa)     =      24.30691      25.20536      24.75613
-------------------------------------------------------------------------------
  Velocity S-wave (km/s)  =       2.79321       2.84436       2.81890
  Velocity P-wave (km/s)  =       4.88740       4.92658       4.90703
-------------------------------------------------------------------------------
  Compressibility (1/GPa) =    0.02380450
-------------------------------------------------------------------------------
  Stress axis :                     x             y             z
-------------------------------------------------------------------------------
  Youngs Moduli (GPa)     =      58.40692      58.40692      75.14688
-------------------------------------------------------------------------------
  Poissons Ratio (x)      =                     0.37965       0.20186
  Poissons Ratio (y)      =       0.37965                     0.20186
  Poissons Ratio (z)      =       0.15690       0.15690
-------------------------------------------------------------------------------


  Piezoelectric Strain Matrix: (Units=C/m**2)

-------------------------------------------------------------------------------
  Indices      1         2         3         4         5         6    
-------------------------------------------------------------------------------
       x     0.00000   0.00000   0.00000   0.00000   0.00000   0.00000
       y     0.00000   0.00000   0.00000   0.00000   0.00000   0.00000
       z     0.00000   0.00000   0.00000   0.00000   0.00000   0.00000
-------------------------------------------------------------------------------


  Piezoelectric Stress Matrix: (Units=10**-11 C/N)

-------------------------------------------------------------------------------
  Indices      1         2         3         4         5         6    
-------------------------------------------------------------------------------
       x     0.00000   0.00000   0.00000   0.00000   0.00000   0.00000
       y     0.00000   0.00000   0.00000   0.00000   0.00000   0.00000
       z     0.00000   0.00000   0.00000   0.00000   0.00000   0.00000
-------------------------------------------------------------------------------


  Static dielectric constant tensor : 

-------------------------------------------------------------------------------
              x         y         z
-------------------------------------------------------------------------------
       x     3.13870   0.00000   0.00000
       y     0.00000   3.13870   0.00000
       z     0.00000   0.00000   3.13868
--------------------------------------------------------------------------------

  High frequency dielectric constant tensor : 

-------------------------------------------------------------------------------
              x         y         z
-------------------------------------------------------------------------------
       x     1.50456   0.00000   0.00000
       y     0.00000   1.50456   0.00000
       z     0.00000   0.00000   1.50456
-------------------------------------------------------------------------------

  Static refractive indices : 

-------------------------------------------------------------------------------
    1 =    1.77163      2 =    1.77164      3 =    1.77164
-------------------------------------------------------------------------------

  High frequency refractive indices : 

-------------------------------------------------------------------------------
    1 =    1.22661      2 =    1.22661      3 =    1.22661
-------------------------------------------------------------------------------


  Time to end of optimisation =       0.0985 seconds


  Peak dynamic memory used =       0.59 MB 


  Timing analysis for GULP :

--------------------------------------------------------------------------------
  Task / Subroutine                                          Time (Seconds)
--------------------------------------------------------------------------------
  Calculation of reciprocal space energy and derivatives          0.0012
  Calculation of reciprocal space energy using symmetry           0.0035
  Calculation of real space energy and derivatives                0.0066
  Calculation of real space energy using symmetry                 0.0835
  Symmetry generation of equivalent positions                     0.0004
--------------------------------------------------------------------------------
  Total CPU time                                                  0.0985
--------------------------------------------------------------------------------


  CIF file written as perov.cif                                               


  Job Finished at 13:09.52 22nd February   2017                               

