********************************************************************************
*                       GENERAL UTILITY LATTICE PROGRAM                        *
*                                 Julian Gale                                  *
*                      Nanochemistry Research Institute                        *
*                           Department of Chemistry                            *
*                    Curtin University, Western Australia                      *
********************************************************************************
* Version = 4.3.2 * Last modified =  3rd March 2015                            *
********************************************************************************
*  optimise     - perform optimisation run                                     *
*  conp         - constant pressure calculation                                *
*  property     - calculate properties for final geometry                      *
********************************************************************************

  Job Started  at 13:10.01 22nd February   2017                               

  Number of CPUs =     1


  Total number of configurations input =   1

********************************************************************************
*  Input for Configuration =   1                                               *
********************************************************************************

  Formula = K2Mn2F6                                                     

  Number of irreducible atoms/shells =       6


  Total number atoms/shells =      16

  Dimensionality = 3               :  Bulk   


  Symmetry :

  Crystal family                   :  Tetragonal  
  Crystal class  (Groth - 1921)    :  Ditetragonal Dipyramidal             

  Space group (centrosymmetric)    :  I 4/M C M       

  Patterson group                  :  I 4/m m m

  Cartesian lattice vectors (Angstroms) :

       -2.100000    2.100000    2.100000
        2.100000   -2.100000    2.100000
        2.100000    2.100000   -2.100000

  Primitive cell parameters :            Full cell parameters :

  a =   3.6373    alpha = 109.4712       a =   4.2000    alpha =  90.0000
  b =   3.6373    beta  = 109.4712       b =   4.2000    beta  =  90.0000
  c =   3.6373    gamma = 109.4712       c =   4.2000    gamma =  90.0000

  Initial volumes (Angstroms**3):

  Primitive cell =          37.044000    Full cell =          74.088000

  Temperature of configuration =  0.000     K 

  Pressure of configuration =         0.000 GPa 

  Fractional coordinates of asymmetric unit :

--------------------------------------------------------------------------------
   No.  Atomic       x           y          z         Charge      Occupancy
        Label      (Frac)      (Frac)     (Frac)        (e)         (Frac)  
--------------------------------------------------------------------------------
      1 K     c    0.000000    0.500000    0.250000     1.20000    1.000000    
      2 Mn    c    0.000000    0.000000    0.000000     2.30000    1.000000    
      3 F     c    0.240600 *  0.740600    0.000000     0.37800    1.000000    
      4 F     c    0.000000    0.000000    0.250000     0.37800    1.000000    
      5 F     s    0.240600 *  0.740600    0.000000    -1.54467    1.000000    
      6 F     s    0.000000    0.000000    0.250000    -1.54467    1.000000    
--------------------------------------------------------------------------------


  Constraints : 

--------------------------------------------------------------------------------
  Constraint no.      Unconstrained     Constrained    Coefficient    Offset
                         Variable         Variable
--------------------------------------------------------------------------------
           1              Strain 1        Strain 2       1.00000      0.0000
           2                 3 x             3 y         1.00000      0.5000
           3                 5 x             5 y         1.00000      0.5000
--------------------------------------------------------------------------------


********************************************************************************
*  General input information                                                   *
********************************************************************************

  Species output for all configurations : 

--------------------------------------------------------------------------------
  Species    Type    Atomic    Atomic    Charge       Radii (Angs)     Library
                     Number     Mass       (e)     Cova   Ionic  VDW   Symbol
--------------------------------------------------------------------------------
    K        Core       19      39.10   1.200000   1.330  0.000  2.800          
    Mn       Core       25      54.94   2.300000   1.350  0.000  2.010          
    F        Core        9      19.00   0.378000   0.710  0.000  1.300          
    F        Shell       9       0.00  -1.544667   0.710  0.000  1.300          
--------------------------------------------------------------------------------


  Lattice summation method               =    Ewald          (3-D)
                                         =    Parry          (2-D)
                                         =    Saunders et al (1-D)
  Accuracy factor for lattice sums       =   12.000


  Time limit = Infinity

  Maximum range for interatomic potentials =    100000.000000 Angstroms

  General interatomic potentials :

--------------------------------------------------------------------------------
Atom  Types   Potential         A         B         C         D     Cutoffs(Ang)
  1     2                                                            Min    Max 
--------------------------------------------------------------------------------
K    c K    c Buckingham    0.219E+04 0.192      0.00      0.00     0.000 10.000
Mn   c F    s Buckingham    0.148E+04 0.266      0.00      0.00     0.000 10.000
F    s F    s Buckingham     912.     0.271      13.8      0.00     0.000 10.000
K    c F    s Buckingham    0.352E+04 0.267      0.00      0.00     0.000 10.000
F    c F    s Spring (c-s)   30.6      0.00      0.00      0.00     0.000  0.800
--------------------------------------------------------------------------------

********************************************************************************
*  Output for configuration   1                                                *
********************************************************************************


  Components of energy : 

--------------------------------------------------------------------------------
  Interatomic potentials     =         251.00594115 eV
  Monopole - monopole (real) =         -70.22286018 eV
  Monopole - monopole (recip)=        -116.97805137 eV
  Monopole - monopole (total)=        -187.20091155 eV
--------------------------------------------------------------------------------
  Total lattice energy : 
    Primitive unit cell      =          63.80502960 eV
    Non-primitive unit cell  =         127.61005920 eV
--------------------------------------------------------------------------------
  Total lattice energy (in kJmol-1): 
    Primitive unit cell      =            6156.2100 kJ/(mole unit cells)
    Non-primitive unit cell  =           12312.4200 kJ/(mole unit cells)
--------------------------------------------------------------------------------


  Number of variables =        4

  Maximum number of calculations  =          1000
  Maximum Hessian update interval =            10
  Maximum step size               =   1.000000000
  Maximum parameter tolerance     =   0.000010000
  Maximum function  tolerance     =   0.000010000
  Maximum gradient  tolerance     =   0.001000000
  Maximum gradient  component     =   0.010000000

  Symmetry constrained optimisation

  Symmetry used for second derivatives

  Cell parameters to be optimised using strains

  Newton-Raphson optimiser to be used

  BFGS hessian update to be used

  Start of bulk optimisation :

  Cycle:      0 Energy:        63.805030  Gnorm:    209.525189  CPU:    0.011
  ** Hessian calculated **
  Cycle:      1 Energy:      -108.614598  Gnorm:      4.625004  CPU:    0.033
  ** Hessian calculated **
  Cycle:      2 Energy:      -108.955694  Gnorm:      0.953529  CPU:    0.049
  Cycle:      3 Energy:      -108.964591  Gnorm:      0.458812  CPU:    0.057
  Cycle:      4 Energy:      -108.964995  Gnorm:      0.133976  CPU:    0.066
  Cycle:      5 Energy:      -108.965023  Gnorm:      0.006550  CPU:    0.074


  **** Optimisation achieved ****


  Final energy =    -108.96502298 eV
  Final Gnorm  =       0.00004028

  Components of energy : 

--------------------------------------------------------------------------------
  Interatomic potentials     =          15.33372402 eV
  Monopole - monopole (real) =         -44.17503075 eV
  Monopole - monopole (recip)=         -80.12371626 eV
  Monopole - monopole (total)=        -124.29874701 eV
--------------------------------------------------------------------------------
  Total lattice energy : 
    Primitive unit cell      =        -108.96502298 eV
    Non-primitive unit cell  =        -217.93004597 eV
--------------------------------------------------------------------------------
  Total lattice energy (in kJmol-1): 
    Primitive unit cell      =          -10513.4590 kJ/(mole unit cells)
    Non-primitive unit cell  =          -21026.9181 kJ/(mole unit cells)
--------------------------------------------------------------------------------

  Final asymmetric unit coordinates :

--------------------------------------------------------------------------------
   No.  Atomic        x           y           z         Radius
        Label       (Frac)      (Frac)      (Frac)       (Angs) 
--------------------------------------------------------------------------------
     1  K     c     0.000000    0.500000    0.250000    0.000000
     2  Mn    c     0.000000    0.000000    0.000000    0.000000
     3  F     c     0.250000    0.750000    0.000000    0.000000
     4  F     c     0.000000    0.000000    0.250000    0.000000
     5  F     s     0.250000    0.750000    0.000000    0.000000
     6  F     s     0.000000    0.000000    0.250000    0.000000
--------------------------------------------------------------------------------

  Final Cartesian lattice vectors (Angstroms) :

       -2.738228    2.738228    3.872437
        2.738228   -2.738228    3.872437
        2.738228    2.738228   -3.872437


  Final cell parameters and derivatives :

--------------------------------------------------------------------------------
       a            5.476455 Angstrom     dE/de1(xx)     0.000085 eV/strain
       b            5.476455 Angstrom     dE/de2(yy)     0.000000 eV/strain
       c            5.476455 Angstrom     dE/de3(zz)    -0.000017 eV/strain
       alpha      119.999979 Degrees      dE/de4(yz)     0.000000 eV/strain
       beta       119.999979 Degrees      dE/de5(xz)     0.000000 eV/strain
       gamma       90.000035 Degrees      dE/de6(xy)     0.000000 eV/strain
--------------------------------------------------------------------------------

  Primitive cell volume =           116.140474 Angs**3

  Density of cell =      4.319111 g/cm**3

  Non-primitive lattice parameters :

  a    =     5.476456  b   =     5.476456  c    =     7.744874
  alpha=    90.000000  beta=    90.000000  gamma=    90.000000

  Non-primitive cell volume =           232.280948 Angs**3


  Final internal derivatives :

--------------------------------------------------------------------------------
   No.  Atomic          a             b             c           Radius
        Label          (eV)          (eV)          (eV)        (eV/Angs)
--------------------------------------------------------------------------------
      1 K     c       0.000000      0.000000      0.000000      0.000000
      2 Mn    c       0.000000      0.000000      0.000000      0.000000
      3 F     c       0.000060      0.000000      0.000000      0.000000
      4 F     c       0.000000      0.000000      0.000000      0.000000
      5 F     s      -0.000122      0.000000      0.000000      0.000000
      6 F     s       0.000000      0.000000      0.000000      0.000000
--------------------------------------------------------------------------------
  Maximum abs         0.000122      0.000000      0.000000      0.000000
--------------------------------------------------------------------------------


  Born effective charge tensors : 

-------------------------------------------------------------------------------
  Atom             x           y             z
-------------------------------------------------------------------------------
   1 K     x       1.1975      0.0000      0.0000
           y       0.0000      1.1975      0.0000
           z       0.0000      0.0000      1.1975
-------------------------------------------------------------------------------
   2 Mn    x       1.8416      0.0000      0.0000
           y       0.0000      1.8416      0.0000
           z       0.0000      0.0000      1.8416
-------------------------------------------------------------------------------
   3 F     x      -1.0327      0.0590      0.0000
           y       0.0590     -1.0327      0.0000
           z       0.0000      0.0000     -0.9737
-------------------------------------------------------------------------------
   4 F     x      -0.9737      0.0000      0.0000
           y       0.0000     -0.9737      0.0000
           z       0.0000      0.0000     -1.0917
-------------------------------------------------------------------------------




  Elastic Constant Matrix: (Units=GPa)

-------------------------------------------------------------------------------
  Indices      1         2         3         4         5         6    
-------------------------------------------------------------------------------
       1    215.7893   66.3928   74.6982    0.0000    0.0000    0.0000
       2     66.3928  215.7893   74.6982    0.0000    0.0000    0.0000
       3     74.6982   74.6982  207.4847    0.0000    0.0000    0.0000
       4      0.0000    0.0000    0.0000   74.6983    0.0000    0.0000
       5      0.0000    0.0000    0.0000    0.0000   74.6983    0.0000
       6      0.0000    0.0000    0.0000    0.0000    0.0000   66.3929
-------------------------------------------------------------------------------


  Elastic Compliance Matrix: (Units=1/GPa)

-------------------------------------------------------------------------------
  Indices      1         2         3         4         5         6    
-------------------------------------------------------------------------------
       1    0.005536 -0.001158 -0.001576  0.000000  0.000000  0.000000
       2   -0.001158  0.005536 -0.001576  0.000000  0.000000  0.000000
       3   -0.001576 -0.001576  0.005955  0.000000  0.000000  0.000000
       4    0.000000  0.000000  0.000000  0.013387  0.000000  0.000000
       5    0.000000  0.000000  0.000000  0.000000  0.013387  0.000000
       6    0.000000  0.000000  0.000000  0.000000  0.000000  0.015062
-------------------------------------------------------------------------------

  Mechanical properties :

-------------------------------------------------------------------------------
  Convention :                    Reuss         Voigt         Hill
-------------------------------------------------------------------------------
  Bulk  Modulus (GPa)     =     118.96021     118.96021     118.96021
  Shear Modulus (GPa)     =      71.13868      71.37614      71.25741
-------------------------------------------------------------------------------
  Velocity S-wave (km/s)  =       4.05841       4.06518       4.06179
  Velocity P-wave (km/s)  =       7.03588       7.04109       7.03849
-------------------------------------------------------------------------------
  Compressibility (1/GPa) =    0.00840617
-------------------------------------------------------------------------------
  Stress axis :                     x             y             z
-------------------------------------------------------------------------------
  Youngs Moduli (GPa)     =     180.63677     180.63677     167.93699
-------------------------------------------------------------------------------
  Poissons Ratio (x)      =                     0.20911       0.26472
  Poissons Ratio (y)      =       0.20911                     0.26472
  Poissons Ratio (z)      =       0.28473       0.28473
-------------------------------------------------------------------------------


  Piezoelectric Strain Matrix: (Units=C/m**2)

-------------------------------------------------------------------------------
  Indices      1         2         3         4         5         6    
-------------------------------------------------------------------------------
       x     0.00000   0.00000   0.00000   0.00000   0.00000   0.00000
       y     0.00000   0.00000   0.00000   0.00000   0.00000   0.00000
       z     0.00000   0.00000   0.00000   0.00000   0.00000   0.00000
-------------------------------------------------------------------------------


  Piezoelectric Stress Matrix: (Units=10**-11 C/N)

-------------------------------------------------------------------------------
  Indices      1         2         3         4         5         6    
-------------------------------------------------------------------------------
       x     0.00000   0.00000   0.00000   0.00000   0.00000   0.00000
       y     0.00000   0.00000   0.00000   0.00000   0.00000   0.00000
       z     0.00000   0.00000   0.00000   0.00000   0.00000   0.00000
-------------------------------------------------------------------------------


  Static dielectric constant tensor : 

-------------------------------------------------------------------------------
              x         y         z
-------------------------------------------------------------------------------
       x     4.77172   0.00000   0.00000
       y     0.00000   4.77172   0.00000
       z     0.00000   0.00000   4.77170
--------------------------------------------------------------------------------

  High frequency dielectric constant tensor : 

-------------------------------------------------------------------------------
              x         y         z
-------------------------------------------------------------------------------
       x     1.69955   0.00000   0.00000
       y     0.00000   1.69955   0.00000
       z     0.00000   0.00000   1.69955
-------------------------------------------------------------------------------

  Static refractive indices : 

-------------------------------------------------------------------------------
    1 =    2.18442      2 =    2.18443      3 =    2.18443
-------------------------------------------------------------------------------

  High frequency refractive indices : 

-------------------------------------------------------------------------------
    1 =    1.30367      2 =    1.30367      3 =    1.30367
-------------------------------------------------------------------------------


  Time to end of optimisation =       0.0921 seconds


  Peak dynamic memory used =       0.59 MB 


  Timing analysis for GULP :

--------------------------------------------------------------------------------
  Task / Subroutine                                          Time (Seconds)
--------------------------------------------------------------------------------
  Calculation of reciprocal space energy and derivatives          0.0012
  Calculation of reciprocal space energy using symmetry           0.0030
  Calculation of real space energy and derivatives                0.0084
  Calculation of real space energy using symmetry                 0.0739
  Symmetry generation of equivalent positions                     0.0006
--------------------------------------------------------------------------------
  Total CPU time                                                  0.0922
--------------------------------------------------------------------------------


  CIF file written as perov.cif                                               


  Job Finished at 13:10.01 22nd February   2017                               

