********************************************************************************
*                       GENERAL UTILITY LATTICE PROGRAM                        *
*                                 Julian Gale                                  *
*                      Nanochemistry Research Institute                        *
*                           Department of Chemistry                            *
*                    Curtin University, Western Australia                      *
********************************************************************************
* Version = 4.3.2 * Last modified =  3rd March 2015                            *
********************************************************************************
*  optimise     - perform optimisation run                                     *
*  conp         - constant pressure calculation                                *
*  property     - calculate properties for final geometry                      *
********************************************************************************

  Job Started  at 13:09.54 22nd February   2017                               

  Number of CPUs =     1


  Total number of configurations input =   1

********************************************************************************
*  Input for Configuration =   1                                               *
********************************************************************************

  Formula = K2Mn2F6                                                     

  Number of irreducible atoms/shells =       6


  Total number atoms/shells =      16

  Dimensionality = 3               :  Bulk   


  Symmetry :

  Crystal family                   :  Tetragonal  
  Crystal class  (Groth - 1921)    :  Ditetragonal Dipyramidal             

  Space group (centrosymmetric)    :  I 4/M C M       

  Patterson group                  :  I 4/m m m

  Cartesian lattice vectors (Angstroms) :

       -2.100000    2.100000    2.100000
        2.100000   -2.100000    2.100000
        2.100000    2.100000   -2.100000

  Primitive cell parameters :            Full cell parameters :

  a =   3.6373    alpha = 109.4712       a =   4.2000    alpha =  90.0000
  b =   3.6373    beta  = 109.4712       b =   4.2000    beta  =  90.0000
  c =   3.6373    gamma = 109.4712       c =   4.2000    gamma =  90.0000

  Initial volumes (Angstroms**3):

  Primitive cell =          37.044000    Full cell =          74.088000

  Temperature of configuration =  0.000     K 

  Pressure of configuration =         0.000 GPa 

  Fractional coordinates of asymmetric unit :

--------------------------------------------------------------------------------
   No.  Atomic       x           y          z         Charge      Occupancy
        Label      (Frac)      (Frac)     (Frac)        (e)         (Frac)  
--------------------------------------------------------------------------------
      1 K     c    0.000000    0.500000    0.250000     0.60000    1.000000    
      2 Mn    c    0.000000    0.000000    0.000000     2.50000    1.000000    
      3 F     c    0.240600 *  0.740600    0.000000     0.37800    1.000000    
      4 F     c    0.000000    0.000000    0.250000     0.37800    1.000000    
      5 F     s    0.240600 *  0.740600    0.000000    -1.41133    1.000000    
      6 F     s    0.000000    0.000000    0.250000    -1.41133    1.000000    
--------------------------------------------------------------------------------


  Constraints : 

--------------------------------------------------------------------------------
  Constraint no.      Unconstrained     Constrained    Coefficient    Offset
                         Variable         Variable
--------------------------------------------------------------------------------
           1              Strain 1        Strain 2       1.00000      0.0000
           2                 3 x             3 y         1.00000      0.5000
           3                 5 x             5 y         1.00000      0.5000
--------------------------------------------------------------------------------


********************************************************************************
*  General input information                                                   *
********************************************************************************

  Species output for all configurations : 

--------------------------------------------------------------------------------
  Species    Type    Atomic    Atomic    Charge       Radii (Angs)     Library
                     Number     Mass       (e)     Cova   Ionic  VDW   Symbol
--------------------------------------------------------------------------------
    K        Core       19      39.10   0.600000   1.330  0.000  2.800          
    Mn       Core       25      54.94   2.500000   1.350  0.000  2.010          
    F        Core        9      19.00   0.378000   0.710  0.000  1.300          
    F        Shell       9       0.00  -1.411333   0.710  0.000  1.300          
--------------------------------------------------------------------------------


  Lattice summation method               =    Ewald          (3-D)
                                         =    Parry          (2-D)
                                         =    Saunders et al (1-D)
  Accuracy factor for lattice sums       =   12.000


  Time limit = Infinity

  Maximum range for interatomic potentials =    100000.000000 Angstroms

  General interatomic potentials :

--------------------------------------------------------------------------------
Atom  Types   Potential         A         B         C         D     Cutoffs(Ang)
  1     2                                                            Min    Max 
--------------------------------------------------------------------------------
K    c K    c Buckingham    0.219E+04 0.192      0.00      0.00     0.000 10.000
Mn   c F    s Buckingham    0.148E+04 0.266      0.00      0.00     0.000 10.000
F    s F    s Buckingham     912.     0.271      13.8      0.00     0.000 10.000
K    c F    s Buckingham    0.352E+04 0.267      0.00      0.00     0.000 10.000
F    c F    s Spring (c-s)   25.5      0.00      0.00      0.00     0.000  0.800
--------------------------------------------------------------------------------

********************************************************************************
*  Output for configuration   1                                                *
********************************************************************************


  Components of energy : 

--------------------------------------------------------------------------------
  Interatomic potentials     =         251.00594115 eV
  Monopole - monopole (real) =         -64.25559064 eV
  Monopole - monopole (recip)=        -105.68735779 eV
  Monopole - monopole (total)=        -169.94294843 eV
--------------------------------------------------------------------------------
  Total lattice energy : 
    Primitive unit cell      =          81.06299271 eV
    Non-primitive unit cell  =         162.12598543 eV
--------------------------------------------------------------------------------
  Total lattice energy (in kJmol-1): 
    Primitive unit cell      =            7821.3396 kJ/(mole unit cells)
    Non-primitive unit cell  =           15642.6793 kJ/(mole unit cells)
--------------------------------------------------------------------------------


  Number of variables =        4

  Maximum number of calculations  =          1000
  Maximum Hessian update interval =            10
  Maximum step size               =   1.000000000
  Maximum parameter tolerance     =   0.000010000
  Maximum function  tolerance     =   0.000010000
  Maximum gradient  tolerance     =   0.001000000
  Maximum gradient  component     =   0.010000000

  Symmetry constrained optimisation

  Symmetry used for second derivatives

  Cell parameters to be optimised using strains

  Newton-Raphson optimiser to be used

  BFGS hessian update to be used

  Start of bulk optimisation :

  Cycle:      0 Energy:        81.062993  Gnorm:    213.239417  CPU:    0.014
  ** Hessian calculated **
  Cycle:      1 Energy:       -97.025038  Gnorm:      5.441692  CPU:    0.038
  ** Hessian calculated **
  Cycle:      2 Energy:       -97.497507  Gnorm:      2.191314  CPU:    0.054
  Cycle:      3 Energy:       -97.522872  Gnorm:      0.569807  CPU:    0.061
  Cycle:      4 Energy:       -97.524243  Gnorm:      0.212795  CPU:    0.069
  Cycle:      5 Energy:       -97.524368  Gnorm:      0.028488  CPU:    0.077
  Cycle:      6 Energy:       -97.524370  Gnorm:      0.002870  CPU:    0.085


  **** Optimisation achieved ****


  Final energy =     -97.52437016 eV
  Final Gnorm  =       0.00033501

  Components of energy : 

--------------------------------------------------------------------------------
  Interatomic potentials     =          13.51637841 eV
  Monopole - monopole (real) =         -24.00917696 eV
  Monopole - monopole (recip)=         -87.03157160 eV
  Monopole - monopole (total)=        -111.04074857 eV
--------------------------------------------------------------------------------
  Total lattice energy : 
    Primitive unit cell      =         -97.52437016 eV
    Non-primitive unit cell  =        -195.04874032 eV
--------------------------------------------------------------------------------
  Total lattice energy (in kJmol-1): 
    Primitive unit cell      =           -9409.6109 kJ/(mole unit cells)
    Non-primitive unit cell  =          -18819.2218 kJ/(mole unit cells)
--------------------------------------------------------------------------------

  Final asymmetric unit coordinates :

--------------------------------------------------------------------------------
   No.  Atomic        x           y           z         Radius
        Label       (Frac)      (Frac)      (Frac)       (Angs) 
--------------------------------------------------------------------------------
     1  K     c     0.000000    0.500000    0.250000    0.000000
     2  Mn    c     0.000000    0.000000    0.000000    0.000000
     3  F     c     0.250000    0.750000    0.000000    0.000000
     4  F     c     0.000000    0.000000    0.250000    0.000000
     5  F     s     0.250000    0.750000    0.000000    0.000000
     6  F     s     0.000000    0.000000    0.250000    0.000000
--------------------------------------------------------------------------------

  Final Cartesian lattice vectors (Angstroms) :

       -2.780933    2.780933    3.932841
        2.780933   -2.780933    3.932841
        2.780933    2.780933   -3.932841


  Final cell parameters and derivatives :

--------------------------------------------------------------------------------
       a            5.561871 Angstrom     dE/de1(xx)    -0.000133 eV/strain
       b            5.561871 Angstrom     dE/de2(yy)     0.000000 eV/strain
       c            5.561871 Angstrom     dE/de3(zz)     0.000122 eV/strain
       alpha      120.000067 Degrees      dE/de4(yz)     0.000000 eV/strain
       beta       120.000067 Degrees      dE/de5(xz)     0.000000 eV/strain
       gamma       89.999883 Degrees      dE/de6(xy)     0.000000 eV/strain
--------------------------------------------------------------------------------

  Primitive cell volume =           121.659862 Angs**3

  Density of cell =      4.123164 g/cm**3

  Non-primitive lattice parameters :

  a    =     5.561865  b   =     5.561865  c    =     7.865682
  alpha=    90.000000  beta=    90.000000  gamma=    90.000000

  Non-primitive cell volume =           243.319724 Angs**3


  Final internal derivatives :

--------------------------------------------------------------------------------
   No.  Atomic          a             b             c           Radius
        Label          (eV)          (eV)          (eV)        (eV/Angs)
--------------------------------------------------------------------------------
      1 K     c       0.000000      0.000000      0.000000      0.000000
      2 Mn    c       0.000000      0.000000      0.000000      0.000000
      3 F     c       0.000995      0.000000      0.000000      0.000000
      4 F     c       0.000000      0.000000      0.000000      0.000000
      5 F     s      -0.000879      0.000000      0.000000      0.000000
      6 F     s       0.000000      0.000000      0.000000      0.000000
--------------------------------------------------------------------------------
  Maximum abs         0.000995      0.000000      0.000000      0.000000
--------------------------------------------------------------------------------


  Born effective charge tensors : 

-------------------------------------------------------------------------------
  Atom             x           y             z
-------------------------------------------------------------------------------
   1 K     x       0.4857      0.0000      0.0000
           y       0.0000      0.4857      0.0000
           z       0.0000      0.0000      0.4857
-------------------------------------------------------------------------------
   2 Mn    x       2.1344      0.0000      0.0000
           y       0.0000      2.1344      0.0000
           z       0.0000      0.0000      2.1344
-------------------------------------------------------------------------------
   3 F     x      -0.9238      0.1512      0.0000
           y       0.1512     -0.9238      0.0000
           z       0.0000      0.0000     -0.7726
-------------------------------------------------------------------------------
   4 F     x      -0.7726      0.0000      0.0000
           y       0.0000     -0.7726      0.0000
           z       0.0000      0.0000     -1.0749
-------------------------------------------------------------------------------




  Elastic Constant Matrix: (Units=GPa)

-------------------------------------------------------------------------------
  Indices      1         2         3         4         5         6    
-------------------------------------------------------------------------------
       1    185.8042   61.2516   62.2762    0.0000    0.0000    0.0000
       2     61.2516  185.8042   62.2762    0.0000    0.0000    0.0000
       3     62.2762   62.2762  184.7773    0.0000    0.0000    0.0000
       4      0.0000    0.0000    0.0000   62.2762    0.0000    0.0000
       5      0.0000    0.0000    0.0000    0.0000   62.2762    0.0000
       6      0.0000    0.0000    0.0000    0.0000    0.0000   61.2515
-------------------------------------------------------------------------------


  Elastic Compliance Matrix: (Units=1/GPa)

-------------------------------------------------------------------------------
  Indices      1         2         3         4         5         6    
-------------------------------------------------------------------------------
       1    0.006452 -0.001576 -0.001643  0.000000  0.000000  0.000000
       2   -0.001576  0.006452 -0.001643  0.000000  0.000000  0.000000
       3   -0.001643 -0.001643  0.006520  0.000000  0.000000  0.000000
       4    0.000000  0.000000  0.000000  0.016057  0.000000  0.000000
       5    0.000000  0.000000  0.000000  0.000000  0.016057  0.000000
       6    0.000000  0.000000  0.000000  0.000000  0.000000  0.016326
-------------------------------------------------------------------------------

  Mechanical properties :

-------------------------------------------------------------------------------
  Convention :                    Reuss         Voigt         Hill
-------------------------------------------------------------------------------
  Bulk  Modulus (GPa)     =     103.11039     103.11039     103.11039
  Shear Modulus (GPa)     =      61.86214      61.86623      61.86419
-------------------------------------------------------------------------------
  Velocity S-wave (km/s)  =       3.87344       3.87357       3.87351
  Velocity P-wave (km/s)  =       6.70912       6.70922       6.70917
-------------------------------------------------------------------------------
  Compressibility (1/GPa) =    0.00969834
-------------------------------------------------------------------------------
  Stress axis :                     x             y             z
-------------------------------------------------------------------------------
  Youngs Moduli (GPa)     =     154.97932     154.97932     153.38094
-------------------------------------------------------------------------------
  Poissons Ratio (x)      =                     0.24429       0.25207
  Poissons Ratio (y)      =       0.24429                     0.25207
  Poissons Ratio (z)      =       0.25470       0.25470
-------------------------------------------------------------------------------


  Piezoelectric Strain Matrix: (Units=C/m**2)

-------------------------------------------------------------------------------
  Indices      1         2         3         4         5         6    
-------------------------------------------------------------------------------
       x     0.00000   0.00000   0.00000   0.00000   0.00000   0.00000
       y     0.00000   0.00000   0.00000   0.00000   0.00000   0.00000
       z     0.00000   0.00000   0.00000   0.00000   0.00000   0.00000
-------------------------------------------------------------------------------


  Piezoelectric Stress Matrix: (Units=10**-11 C/N)

-------------------------------------------------------------------------------
  Indices      1         2         3         4         5         6    
-------------------------------------------------------------------------------
       x     0.00000   0.00000   0.00000   0.00000   0.00000   0.00000
       y     0.00000   0.00000   0.00000   0.00000   0.00000   0.00000
       z     0.00000   0.00000   0.00000   0.00000   0.00000   0.00000
-------------------------------------------------------------------------------


  Static dielectric constant tensor : 

-------------------------------------------------------------------------------
              x         y         z
-------------------------------------------------------------------------------
       x     3.47601   0.00000   0.00000
       y     0.00000   3.47601   0.00000
       z     0.00000   0.00000   3.47608
--------------------------------------------------------------------------------

  High frequency dielectric constant tensor : 

-------------------------------------------------------------------------------
              x         y         z
-------------------------------------------------------------------------------
       x     1.66088   0.00000   0.00000
       y     0.00000   1.66088   0.00000
       z     0.00000   0.00000   1.66087
-------------------------------------------------------------------------------

  Static refractive indices : 

-------------------------------------------------------------------------------
    1 =    1.86441      2 =    1.86441      3 =    1.86442
-------------------------------------------------------------------------------

  High frequency refractive indices : 

-------------------------------------------------------------------------------
    1 =    1.28875      2 =    1.28875      3 =    1.28875
-------------------------------------------------------------------------------


  Time to end of optimisation =       0.1010 seconds


  Peak dynamic memory used =       0.59 MB 


  Timing analysis for GULP :

--------------------------------------------------------------------------------
  Task / Subroutine                                          Time (Seconds)
--------------------------------------------------------------------------------
  Calculation of reciprocal space energy and derivatives          0.0012
  Calculation of reciprocal space energy using symmetry           0.0033
  Calculation of real space energy and derivatives                0.0070
  Calculation of real space energy using symmetry                 0.0848
  Symmetry generation of equivalent positions                     0.0005
--------------------------------------------------------------------------------
  Total CPU time                                                  0.1011
--------------------------------------------------------------------------------


  CIF file written as perov.cif                                               


  Job Finished at 13:09.54 22nd February   2017                               

