********************************************************************************
*                       GENERAL UTILITY LATTICE PROGRAM                        *
*                                 Julian Gale                                  *
*                      Nanochemistry Research Institute                        *
*                           Department of Chemistry                            *
*                    Curtin University, Western Australia                      *
********************************************************************************
* Version = 4.3.2 * Last modified =  3rd March 2015                            *
********************************************************************************
*  optimise     - perform optimisation run                                     *
*  conp         - constant pressure calculation                                *
*  property     - calculate properties for final geometry                      *
********************************************************************************

  Job Started  at 13:10.02 22nd February   2017                               

  Number of CPUs =     1


  Total number of configurations input =   1

********************************************************************************
*  Input for Configuration =   1                                               *
********************************************************************************

  Formula = K2Mn2F6                                                     

  Number of irreducible atoms/shells =       6


  Total number atoms/shells =      16

  Dimensionality = 3               :  Bulk   


  Symmetry :

  Crystal family                   :  Tetragonal  
  Crystal class  (Groth - 1921)    :  Ditetragonal Dipyramidal             

  Space group (centrosymmetric)    :  I 4/M C M       

  Patterson group                  :  I 4/m m m

  Cartesian lattice vectors (Angstroms) :

       -2.100000    2.100000    2.100000
        2.100000   -2.100000    2.100000
        2.100000    2.100000   -2.100000

  Primitive cell parameters :            Full cell parameters :

  a =   3.6373    alpha = 109.4712       a =   4.2000    alpha =  90.0000
  b =   3.6373    beta  = 109.4712       b =   4.2000    beta  =  90.0000
  c =   3.6373    gamma = 109.4712       c =   4.2000    gamma =  90.0000

  Initial volumes (Angstroms**3):

  Primitive cell =          37.044000    Full cell =          74.088000

  Temperature of configuration =  0.000     K 

  Pressure of configuration =         0.000 GPa 

  Fractional coordinates of asymmetric unit :

--------------------------------------------------------------------------------
   No.  Atomic       x           y          z         Charge      Occupancy
        Label      (Frac)      (Frac)     (Frac)        (e)         (Frac)  
--------------------------------------------------------------------------------
      1 K     c    0.000000    0.500000    0.250000     1.30000    1.000000    
      2 Mn    c    0.000000    0.000000    0.000000     2.40000    1.000000    
      3 F     c    0.240600 *  0.740600    0.000000     0.37800    1.000000    
      4 F     c    0.000000    0.000000    0.250000     0.37800    1.000000    
      5 F     s    0.240600 *  0.740600    0.000000    -1.61133    1.000000    
      6 F     s    0.000000    0.000000    0.250000    -1.61133    1.000000    
--------------------------------------------------------------------------------


  Constraints : 

--------------------------------------------------------------------------------
  Constraint no.      Unconstrained     Constrained    Coefficient    Offset
                         Variable         Variable
--------------------------------------------------------------------------------
           1              Strain 1        Strain 2       1.00000      0.0000
           2                 3 x             3 y         1.00000      0.5000
           3                 5 x             5 y         1.00000      0.5000
--------------------------------------------------------------------------------


********************************************************************************
*  General input information                                                   *
********************************************************************************

  Species output for all configurations : 

--------------------------------------------------------------------------------
  Species    Type    Atomic    Atomic    Charge       Radii (Angs)     Library
                     Number     Mass       (e)     Cova   Ionic  VDW   Symbol
--------------------------------------------------------------------------------
    K        Core       19      39.10   1.300000   1.330  0.000  2.800          
    Mn       Core       25      54.94   2.400000   1.350  0.000  2.010          
    F        Core        9      19.00   0.378000   0.710  0.000  1.300          
    F        Shell       9       0.00  -1.611333   0.710  0.000  1.300          
--------------------------------------------------------------------------------


  Lattice summation method               =    Ewald          (3-D)
                                         =    Parry          (2-D)
                                         =    Saunders et al (1-D)
  Accuracy factor for lattice sums       =   12.000


  Time limit = Infinity

  Maximum range for interatomic potentials =    100000.000000 Angstroms

  General interatomic potentials :

--------------------------------------------------------------------------------
Atom  Types   Potential         A         B         C         D     Cutoffs(Ang)
  1     2                                                            Min    Max 
--------------------------------------------------------------------------------
K    c K    c Buckingham    0.219E+04 0.192      0.00      0.00     0.000 10.000
Mn   c F    s Buckingham    0.148E+04 0.266      0.00      0.00     0.000 10.000
F    s F    s Buckingham     912.     0.271      13.8      0.00     0.000 10.000
K    c F    s Buckingham    0.352E+04 0.267      0.00      0.00     0.000 10.000
F    c F    s Spring (c-s)   33.3      0.00      0.00      0.00     0.000  0.800
--------------------------------------------------------------------------------

********************************************************************************
*  Output for configuration   1                                                *
********************************************************************************


  Components of energy : 

--------------------------------------------------------------------------------
  Interatomic potentials     =         251.00594115 eV
  Monopole - monopole (real) =         -77.75448788 eV
  Monopole - monopole (recip)=        -129.94629808 eV
  Monopole - monopole (total)=        -207.70078596 eV
--------------------------------------------------------------------------------
  Total lattice energy : 
    Primitive unit cell      =          43.30515519 eV
    Non-primitive unit cell  =          86.61031038 eV
--------------------------------------------------------------------------------
  Total lattice energy (in kJmol-1): 
    Primitive unit cell      =            4178.2855 kJ/(mole unit cells)
    Non-primitive unit cell  =            8356.5710 kJ/(mole unit cells)
--------------------------------------------------------------------------------


  Number of variables =        4

  Maximum number of calculations  =          1000
  Maximum Hessian update interval =            10
  Maximum step size               =   1.000000000
  Maximum parameter tolerance     =   0.000010000
  Maximum function  tolerance     =   0.000010000
  Maximum gradient  tolerance     =   0.001000000
  Maximum gradient  component     =   0.010000000

  Symmetry constrained optimisation

  Symmetry used for second derivatives

  Cell parameters to be optimised using strains

  Newton-Raphson optimiser to be used

  BFGS hessian update to be used

  Start of bulk optimisation :

  Cycle:      0 Energy:        43.305155  Gnorm:    205.839430  CPU:    0.010
  ** Hessian calculated **
  Cycle:      1 Energy:      -122.462267  Gnorm:      4.318876  CPU:    0.032
  ** Hessian calculated **
  Cycle:      2 Energy:      -122.727174  Gnorm:      1.204099  CPU:    0.044
  Cycle:      3 Energy:      -122.734435  Gnorm:      0.478493  CPU:    0.052
  Cycle:      4 Energy:      -122.734645  Gnorm:      0.044975  CPU:    0.059
  Cycle:      5 Energy:      -122.734655  Gnorm:      0.003917  CPU:    0.067


  **** Optimisation achieved ****


  Final energy =    -122.73465478 eV
  Final Gnorm  =       0.00008516

  Components of energy : 

--------------------------------------------------------------------------------
  Interatomic potentials     =          17.55898282 eV
  Monopole - monopole (real) =         -49.77252844 eV
  Monopole - monopole (recip)=         -90.52110916 eV
  Monopole - monopole (total)=        -140.29363760 eV
--------------------------------------------------------------------------------
  Total lattice energy : 
    Primitive unit cell      =        -122.73465478 eV
    Non-primitive unit cell  =        -245.46930957 eV
--------------------------------------------------------------------------------
  Total lattice energy (in kJmol-1): 
    Primitive unit cell      =          -11842.0180 kJ/(mole unit cells)
    Non-primitive unit cell  =          -23684.0360 kJ/(mole unit cells)
--------------------------------------------------------------------------------

  Final asymmetric unit coordinates :

--------------------------------------------------------------------------------
   No.  Atomic        x           y           z         Radius
        Label       (Frac)      (Frac)      (Frac)       (Angs) 
--------------------------------------------------------------------------------
     1  K     c     0.000000    0.500000    0.250000    0.000000
     2  Mn    c     0.000000    0.000000    0.000000    0.000000
     3  F     c     0.250000    0.750000    0.000000    0.000000
     4  F     c     0.000000    0.000000    0.250000    0.000000
     5  F     s     0.250000    0.750000    0.000000    0.000000
     6  F     s     0.000000    0.000000    0.250000    0.000000
--------------------------------------------------------------------------------

  Final Cartesian lattice vectors (Angstroms) :

       -2.692508    2.692508    3.807774
        2.692508   -2.692508    3.807774
        2.692508    2.692508   -3.807774


  Final cell parameters and derivatives :

--------------------------------------------------------------------------------
       a            5.385011 Angstrom     dE/de1(xx)     0.000311 eV/strain
       b            5.385011 Angstrom     dE/de2(yy)     0.000000 eV/strain
       c            5.385011 Angstrom     dE/de3(zz)    -0.000042 eV/strain
       alpha      119.999936 Degrees      dE/de4(yz)     0.000000 eV/strain
       beta       119.999936 Degrees      dE/de5(xz)     0.000000 eV/strain
       gamma       90.000111 Degrees      dE/de6(xy)     0.000000 eV/strain
--------------------------------------------------------------------------------

  Primitive cell volume =           110.419384 Angs**3

  Density of cell =      4.542895 g/cm**3

  Non-primitive lattice parameters :

  a    =     5.385017  b   =     5.385017  c    =     7.615549
  alpha=    90.000000  beta=    90.000000  gamma=    90.000000

  Non-primitive cell volume =           220.838768 Angs**3


  Final internal derivatives :

--------------------------------------------------------------------------------
   No.  Atomic          a             b             c           Radius
        Label          (eV)          (eV)          (eV)        (eV/Angs)
--------------------------------------------------------------------------------
      1 K     c       0.000000      0.000000      0.000000      0.000000
      2 Mn    c       0.000000      0.000000      0.000000      0.000000
      3 F     c       0.000041      0.000000      0.000000      0.000000
      4 F     c       0.000000      0.000000      0.000000      0.000000
      5 F     s      -0.000127      0.000000      0.000000      0.000000
      6 F     s       0.000000      0.000000      0.000000      0.000000
--------------------------------------------------------------------------------
  Maximum abs         0.000127      0.000000      0.000000      0.000000
--------------------------------------------------------------------------------


  Born effective charge tensors : 

-------------------------------------------------------------------------------
  Atom             x           y             z
-------------------------------------------------------------------------------
   1 K     x       1.2981      0.0000      0.0000
           y       0.0000      1.2981      0.0000
           z       0.0000      0.0000      1.2981
-------------------------------------------------------------------------------
   2 Mn    x       1.9233      0.0000      0.0000
           y       0.0000      1.9233      0.0000
           z       0.0000      0.0000      1.9233
-------------------------------------------------------------------------------
   3 F     x      -1.0969      0.0692      0.0000
           y       0.0692     -1.0969      0.0000
           z       0.0000      0.0000     -1.0277
-------------------------------------------------------------------------------
   4 F     x      -1.0277      0.0000      0.0000
           y       0.0000     -1.0277      0.0000
           z       0.0000      0.0000     -1.1660
-------------------------------------------------------------------------------




  Elastic Constant Matrix: (Units=GPa)

-------------------------------------------------------------------------------
  Indices      1         2         3         4         5         6    
-------------------------------------------------------------------------------
       1    252.8626   73.9066   89.4779    0.0000    0.0000    0.0000
       2     73.9066  252.8626   89.4779    0.0000    0.0000    0.0000
       3     89.4779   89.4779  237.2941    0.0000    0.0000    0.0000
       4      0.0000    0.0000    0.0000   89.4780    0.0000    0.0000
       5      0.0000    0.0000    0.0000    0.0000   89.4780    0.0000
       6      0.0000    0.0000    0.0000    0.0000    0.0000   73.9068
-------------------------------------------------------------------------------


  Elastic Compliance Matrix: (Units=1/GPa)

-------------------------------------------------------------------------------
  Indices      1         2         3         4         5         6    
-------------------------------------------------------------------------------
       1    0.004722 -0.000866 -0.001454  0.000000  0.000000  0.000000
       2   -0.000866  0.004722 -0.001454  0.000000  0.000000  0.000000
       3   -0.001454 -0.001454  0.005311  0.000000  0.000000  0.000000
       4    0.000000  0.000000  0.000000  0.011176  0.000000  0.000000
       5    0.000000  0.000000  0.000000  0.000000  0.011176  0.000000
       6    0.000000  0.000000  0.000000  0.000000  0.000000  0.013531
-------------------------------------------------------------------------------

  Mechanical properties :

-------------------------------------------------------------------------------
  Convention :                    Reuss         Voigt         Hill
-------------------------------------------------------------------------------
  Bulk  Modulus (GPa)     =     138.74936     138.74936     138.74936
  Shear Modulus (GPa)     =      82.52358      83.24969      82.88663
-------------------------------------------------------------------------------
  Velocity S-wave (km/s)  =       4.26209       4.28080       4.27146
  Velocity P-wave (km/s)  =       7.40018       7.41456       7.40737
-------------------------------------------------------------------------------
  Compressibility (1/GPa) =    0.00720724
-------------------------------------------------------------------------------
  Stress axis :                     x             y             z
-------------------------------------------------------------------------------
  Youngs Moduli (GPa)     =     211.75986     211.75986     188.29138
-------------------------------------------------------------------------------
  Poissons Ratio (x)      =                     0.18331       0.27383
  Poissons Ratio (y)      =       0.18331                     0.27383
  Poissons Ratio (z)      =       0.30796       0.30796
-------------------------------------------------------------------------------


  Piezoelectric Strain Matrix: (Units=C/m**2)

-------------------------------------------------------------------------------
  Indices      1         2         3         4         5         6    
-------------------------------------------------------------------------------
       x     0.00000   0.00000   0.00000   0.00000   0.00000   0.00000
       y     0.00000   0.00000   0.00000   0.00000   0.00000   0.00000
       z     0.00000   0.00000   0.00000   0.00000   0.00000   0.00000
-------------------------------------------------------------------------------


  Piezoelectric Stress Matrix: (Units=10**-11 C/N)

-------------------------------------------------------------------------------
  Indices      1         2         3         4         5         6    
-------------------------------------------------------------------------------
       x     0.00000   0.00000   0.00000   0.00000   0.00000   0.00000
       y     0.00000   0.00000   0.00000   0.00000   0.00000   0.00000
       z     0.00000   0.00000   0.00000   0.00000   0.00000   0.00000
-------------------------------------------------------------------------------


  Static dielectric constant tensor : 

-------------------------------------------------------------------------------
              x         y         z
-------------------------------------------------------------------------------
       x     5.00395   0.00000   0.00000
       y     0.00000   5.00395   0.00000
       z     0.00000   0.00000   5.00389
--------------------------------------------------------------------------------

  High frequency dielectric constant tensor : 

-------------------------------------------------------------------------------
              x         y         z
-------------------------------------------------------------------------------
       x     1.73668   0.00000   0.00000
       y     0.00000   1.73668   0.00000
       z     0.00000   0.00000   1.73668
-------------------------------------------------------------------------------

  Static refractive indices : 

-------------------------------------------------------------------------------
    1 =    2.23694      2 =    2.23695      3 =    2.23695
-------------------------------------------------------------------------------

  High frequency refractive indices : 

-------------------------------------------------------------------------------
    1 =    1.31783      2 =    1.31783      3 =    1.31783
-------------------------------------------------------------------------------


  Time to end of optimisation =       0.0831 seconds


  Peak dynamic memory used =       0.59 MB 


  Timing analysis for GULP :

--------------------------------------------------------------------------------
  Task / Subroutine                                          Time (Seconds)
--------------------------------------------------------------------------------
  Calculation of reciprocal space energy and derivatives          0.0011
  Calculation of reciprocal space energy using symmetry           0.0028
  Calculation of real space energy and derivatives                0.0067
  Calculation of real space energy using symmetry                 0.0687
  Symmetry generation of equivalent positions                     0.0004
--------------------------------------------------------------------------------
  Total CPU time                                                  0.0831
--------------------------------------------------------------------------------


  CIF file written as perov.cif                                               


  Job Finished at 13:10.03 22nd February   2017                               

