********************************************************************************
*                       GENERAL UTILITY LATTICE PROGRAM                        *
*                                 Julian Gale                                  *
*                      Nanochemistry Research Institute                        *
*                           Department of Chemistry                            *
*                    Curtin University, Western Australia                      *
********************************************************************************
* Version = 4.3.2 * Last modified =  3rd March 2015                            *
********************************************************************************
*  optimise     - perform optimisation run                                     *
*  conp         - constant pressure calculation                                *
*  property     - calculate properties for final geometry                      *
********************************************************************************

  Job Started  at 13:09.56 22nd February   2017                               

  Number of CPUs =     1


  Total number of configurations input =   1

********************************************************************************
*  Input for Configuration =   1                                               *
********************************************************************************

  Formula = K2Mn2F6                                                     

  Number of irreducible atoms/shells =       6


  Total number atoms/shells =      16

  Dimensionality = 3               :  Bulk   


  Symmetry :

  Crystal family                   :  Tetragonal  
  Crystal class  (Groth - 1921)    :  Ditetragonal Dipyramidal             

  Space group (centrosymmetric)    :  I 4/M C M       

  Patterson group                  :  I 4/m m m

  Cartesian lattice vectors (Angstroms) :

       -2.100000    2.100000    2.100000
        2.100000   -2.100000    2.100000
        2.100000    2.100000   -2.100000

  Primitive cell parameters :            Full cell parameters :

  a =   3.6373    alpha = 109.4712       a =   4.2000    alpha =  90.0000
  b =   3.6373    beta  = 109.4712       b =   4.2000    beta  =  90.0000
  c =   3.6373    gamma = 109.4712       c =   4.2000    gamma =  90.0000

  Initial volumes (Angstroms**3):

  Primitive cell =          37.044000    Full cell =          74.088000

  Temperature of configuration =  0.000     K 

  Pressure of configuration =         0.000 GPa 

  Fractional coordinates of asymmetric unit :

--------------------------------------------------------------------------------
   No.  Atomic       x           y          z         Charge      Occupancy
        Label      (Frac)      (Frac)     (Frac)        (e)         (Frac)  
--------------------------------------------------------------------------------
      1 K     c    0.000000    0.500000    0.250000     0.80000    1.000000    
      2 Mn    c    0.000000    0.000000    0.000000     2.40000    1.000000    
      3 F     c    0.240600 *  0.740600    0.000000     0.37800    1.000000    
      4 F     c    0.000000    0.000000    0.250000     0.37800    1.000000    
      5 F     s    0.240600 *  0.740600    0.000000    -1.44467    1.000000    
      6 F     s    0.000000    0.000000    0.250000    -1.44467    1.000000    
--------------------------------------------------------------------------------


  Constraints : 

--------------------------------------------------------------------------------
  Constraint no.      Unconstrained     Constrained    Coefficient    Offset
                         Variable         Variable
--------------------------------------------------------------------------------
           1              Strain 1        Strain 2       1.00000      0.0000
           2                 3 x             3 y         1.00000      0.5000
           3                 5 x             5 y         1.00000      0.5000
--------------------------------------------------------------------------------


********************************************************************************
*  General input information                                                   *
********************************************************************************

  Species output for all configurations : 

--------------------------------------------------------------------------------
  Species    Type    Atomic    Atomic    Charge       Radii (Angs)     Library
                     Number     Mass       (e)     Cova   Ionic  VDW   Symbol
--------------------------------------------------------------------------------
    K        Core       19      39.10   0.800000   1.330  0.000  2.800          
    Mn       Core       25      54.94   2.400000   1.350  0.000  2.010          
    F        Core        9      19.00   0.378000   0.710  0.000  1.300          
    F        Shell       9       0.00  -1.444667   0.710  0.000  1.300          
--------------------------------------------------------------------------------


  Lattice summation method               =    Ewald          (3-D)
                                         =    Parry          (2-D)
                                         =    Saunders et al (1-D)
  Accuracy factor for lattice sums       =   12.000


  Time limit = Infinity

  Maximum range for interatomic potentials =    100000.000000 Angstroms

  General interatomic potentials :

--------------------------------------------------------------------------------
Atom  Types   Potential         A         B         C         D     Cutoffs(Ang)
  1     2                                                            Min    Max 
--------------------------------------------------------------------------------
K    c K    c Buckingham    0.219E+04 0.192      0.00      0.00     0.000 10.000
Mn   c F    s Buckingham    0.148E+04 0.266      0.00      0.00     0.000 10.000
F    s F    s Buckingham     912.     0.271      13.8      0.00     0.000 10.000
K    c F    s Buckingham    0.352E+04 0.267      0.00      0.00     0.000 10.000
F    c F    s Spring (c-s)   26.8      0.00      0.00      0.00     0.000  0.800
--------------------------------------------------------------------------------

********************************************************************************
*  Output for configuration   1                                                *
********************************************************************************


  Components of energy : 

--------------------------------------------------------------------------------
  Interatomic potentials     =         251.00594115 eV
  Monopole - monopole (real) =         -64.71730972 eV
  Monopole - monopole (recip)=        -105.99776476 eV
  Monopole - monopole (total)=        -170.71507448 eV
--------------------------------------------------------------------------------
  Total lattice energy : 
    Primitive unit cell      =          80.29086667 eV
    Non-primitive unit cell  =         160.58173333 eV
--------------------------------------------------------------------------------
  Total lattice energy (in kJmol-1): 
    Primitive unit cell      =            7746.8413 kJ/(mole unit cells)
    Non-primitive unit cell  =           15493.6826 kJ/(mole unit cells)
--------------------------------------------------------------------------------


  Number of variables =        4

  Maximum number of calculations  =          1000
  Maximum Hessian update interval =            10
  Maximum step size               =   1.000000000
  Maximum parameter tolerance     =   0.000010000
  Maximum function  tolerance     =   0.000010000
  Maximum gradient  tolerance     =   0.001000000
  Maximum gradient  component     =   0.010000000

  Symmetry constrained optimisation

  Symmetry used for second derivatives

  Cell parameters to be optimised using strains

  Newton-Raphson optimiser to be used

  BFGS hessian update to be used

  Start of bulk optimisation :

  Cycle:      0 Energy:        80.290867  Gnorm:    212.877653  CPU:    0.010
  ** Hessian calculated **
  Cycle:      1 Energy:       -97.479541  Gnorm:      4.860023  CPU:    0.032
  ** Hessian calculated **
  Cycle:      2 Energy:       -97.930417  Gnorm:      1.294432  CPU:    0.044
  Cycle:      3 Energy:       -97.948819  Gnorm:      0.524382  CPU:    0.053
  Cycle:      4 Energy:       -97.949797  Gnorm:      0.247450  CPU:    0.061
  Cycle:      5 Energy:       -97.949902  Gnorm:      0.026201  CPU:    0.068
  Cycle:      6 Energy:       -97.949903  Gnorm:      0.002005  CPU:    0.076


  **** Optimisation achieved ****


  Final energy =     -97.94990275 eV
  Final Gnorm  =       0.00007522

  Components of energy : 

--------------------------------------------------------------------------------
  Interatomic potentials     =          13.58345946 eV
  Monopole - monopole (real) =         -39.95824107 eV
  Monopole - monopole (recip)=         -71.57512113 eV
  Monopole - monopole (total)=        -111.53336220 eV
--------------------------------------------------------------------------------
  Total lattice energy : 
    Primitive unit cell      =         -97.94990275 eV
    Non-primitive unit cell  =        -195.89980550 eV
--------------------------------------------------------------------------------
  Total lattice energy (in kJmol-1): 
    Primitive unit cell      =           -9450.6683 kJ/(mole unit cells)
    Non-primitive unit cell  =          -18901.3366 kJ/(mole unit cells)
--------------------------------------------------------------------------------

  Final asymmetric unit coordinates :

--------------------------------------------------------------------------------
   No.  Atomic        x           y           z         Radius
        Label       (Frac)      (Frac)      (Frac)       (Angs) 
--------------------------------------------------------------------------------
     1  K     c     0.000000    0.500000    0.250000    0.000000
     2  Mn    c     0.000000    0.000000    0.000000    0.000000
     3  F     c     0.250000    0.750000    0.000000    0.000000
     4  F     c     0.000000    0.000000    0.250000    0.000000
     5  F     s     0.250000    0.750000    0.000000    0.000000
     6  F     s     0.000000    0.000000    0.250000    0.000000
--------------------------------------------------------------------------------

  Final Cartesian lattice vectors (Angstroms) :

       -2.779258    2.779258    3.930468
        2.779258   -2.779258    3.930468
        2.779258    2.779258   -3.930468


  Final cell parameters and derivatives :

--------------------------------------------------------------------------------
       a            5.558518 Angstrom     dE/de1(xx)    -0.000072 eV/strain
       b            5.558518 Angstrom     dE/de2(yy)     0.000000 eV/strain
       c            5.558518 Angstrom     dE/de3(zz)     0.000037 eV/strain
       alpha      120.000027 Degrees      dE/de4(yz)     0.000000 eV/strain
       beta       120.000027 Degrees      dE/de5(xz)     0.000000 eV/strain
       gamma       89.999953 Degrees      dE/de6(xy)     0.000000 eV/strain
--------------------------------------------------------------------------------

  Primitive cell volume =           121.440060 Angs**3

  Density of cell =      4.130627 g/cm**3

  Non-primitive lattice parameters :

  a    =     5.558516  b   =     5.558516  c    =     7.860935
  alpha=    90.000000  beta=    90.000000  gamma=    90.000000

  Non-primitive cell volume =           242.880120 Angs**3


  Final internal derivatives :

--------------------------------------------------------------------------------
   No.  Atomic          a             b             c           Radius
        Label          (eV)          (eV)          (eV)        (eV/Angs)
--------------------------------------------------------------------------------
      1 K     c       0.000000      0.000000      0.000000      0.000000
      2 Mn    c       0.000000      0.000000      0.000000      0.000000
      3 F     c      -0.000148      0.000000      0.000000      0.000000
      4 F     c       0.000000      0.000000      0.000000      0.000000
      5 F     s       0.000249      0.000000      0.000000      0.000000
      6 F     s       0.000000      0.000000      0.000000      0.000000
--------------------------------------------------------------------------------
  Maximum abs         0.000249      0.000000      0.000000      0.000000
--------------------------------------------------------------------------------


  Born effective charge tensors : 

-------------------------------------------------------------------------------
  Atom             x           y             z
-------------------------------------------------------------------------------
   1 K     x       0.7256      0.0000      0.0000
           y       0.0000      0.7256      0.0000
           z       0.0000      0.0000      0.7256
-------------------------------------------------------------------------------
   2 Mn    x       2.0079      0.0000      0.0000
           y       0.0000      2.0079      0.0000
           z       0.0000      0.0000      2.0079
-------------------------------------------------------------------------------
   3 F     x      -0.9499      0.1163      0.0000
           y       0.1163     -0.9499      0.0000
           z       0.0000      0.0000     -0.8336
-------------------------------------------------------------------------------
   4 F     x      -0.8336      0.0000      0.0000
           y       0.0000     -0.8336      0.0000
           z       0.0000      0.0000     -1.0663
-------------------------------------------------------------------------------




  Elastic Constant Matrix: (Units=GPa)

-------------------------------------------------------------------------------
  Indices      1         2         3         4         5         6    
-------------------------------------------------------------------------------
       1    187.6110   59.3056   64.1526    0.0000    0.0000    0.0000
       2     59.3056  187.6110   64.1526    0.0000    0.0000    0.0000
       3     64.1526   64.1526  182.7630    0.0000    0.0000    0.0000
       4      0.0000    0.0000    0.0000   64.1526    0.0000    0.0000
       5      0.0000    0.0000    0.0000    0.0000   64.1526    0.0000
       6      0.0000    0.0000    0.0000    0.0000    0.0000   59.3056
-------------------------------------------------------------------------------


  Elastic Compliance Matrix: (Units=1/GPa)

-------------------------------------------------------------------------------
  Indices      1         2         3         4         5         6    
-------------------------------------------------------------------------------
       1    0.006374 -0.001420 -0.001739  0.000000  0.000000  0.000000
       2   -0.001420  0.006374 -0.001739  0.000000  0.000000  0.000000
       3   -0.001739 -0.001739  0.006692  0.000000  0.000000  0.000000
       4    0.000000  0.000000  0.000000  0.015588  0.000000  0.000000
       5    0.000000  0.000000  0.000000  0.000000  0.015588  0.000000
       6    0.000000  0.000000  0.000000  0.000000  0.000000  0.016862
-------------------------------------------------------------------------------

  Mechanical properties :

-------------------------------------------------------------------------------
  Convention :                    Reuss         Voigt         Hill
-------------------------------------------------------------------------------
  Bulk  Modulus (GPa)     =     103.68964     103.68964     103.68964
  Shear Modulus (GPa)     =      62.12170      62.21378      62.16774
-------------------------------------------------------------------------------
  Velocity S-wave (km/s)  =       3.87805       3.88093       3.87949
  Velocity P-wave (km/s)  =       6.71975       6.72196       6.72085
-------------------------------------------------------------------------------
  Compressibility (1/GPa) =    0.00964416
-------------------------------------------------------------------------------
  Stress axis :                     x             y             z
-------------------------------------------------------------------------------
  Youngs Moduli (GPa)     =     156.89522     156.89522     149.42736
-------------------------------------------------------------------------------
  Poissons Ratio (x)      =                     0.22283       0.25982
  Poissons Ratio (y)      =       0.22283                     0.25982
  Poissons Ratio (z)      =       0.27280       0.27280
-------------------------------------------------------------------------------


  Piezoelectric Strain Matrix: (Units=C/m**2)

-------------------------------------------------------------------------------
  Indices      1         2         3         4         5         6    
-------------------------------------------------------------------------------
       x     0.00000   0.00000   0.00000   0.00000   0.00000   0.00000
       y     0.00000   0.00000   0.00000   0.00000   0.00000   0.00000
       z     0.00000   0.00000   0.00000   0.00000   0.00000   0.00000
-------------------------------------------------------------------------------


  Piezoelectric Stress Matrix: (Units=10**-11 C/N)

-------------------------------------------------------------------------------
  Indices      1         2         3         4         5         6    
-------------------------------------------------------------------------------
       x     0.00000   0.00000   0.00000   0.00000   0.00000   0.00000
       y     0.00000   0.00000   0.00000   0.00000   0.00000   0.00000
       z     0.00000   0.00000   0.00000   0.00000   0.00000   0.00000
-------------------------------------------------------------------------------


  Static dielectric constant tensor : 

-------------------------------------------------------------------------------
              x         y         z
-------------------------------------------------------------------------------
       x     3.67736   0.00000   0.00000
       y     0.00000   3.67736   0.00000
       z     0.00000   0.00000   3.67738
--------------------------------------------------------------------------------

  High frequency dielectric constant tensor : 

-------------------------------------------------------------------------------
              x         y         z
-------------------------------------------------------------------------------
       x     1.66478   0.00000   0.00000
       y     0.00000   1.66478   0.00000
       z     0.00000   0.00000   1.66479
-------------------------------------------------------------------------------

  Static refractive indices : 

-------------------------------------------------------------------------------
    1 =    1.91764      2 =    1.91764      3 =    1.91765
-------------------------------------------------------------------------------

  High frequency refractive indices : 

-------------------------------------------------------------------------------
    1 =    1.29027      2 =    1.29027      3 =    1.29027
-------------------------------------------------------------------------------


  Time to end of optimisation =       0.0922 seconds


  Peak dynamic memory used =       0.59 MB 


  Timing analysis for GULP :

--------------------------------------------------------------------------------
  Task / Subroutine                                          Time (Seconds)
--------------------------------------------------------------------------------
  Calculation of reciprocal space energy and derivatives          0.0012
  Calculation of reciprocal space energy using symmetry           0.0031
  Calculation of real space energy and derivatives                0.0071
  Calculation of real space energy using symmetry                 0.0771
  Symmetry generation of equivalent positions                     0.0004
--------------------------------------------------------------------------------
  Total CPU time                                                  0.0922
--------------------------------------------------------------------------------


  CIF file written as perov.cif                                               


  Job Finished at 13:09.56 22nd February   2017                               

