********************************************************************************
*                       GENERAL UTILITY LATTICE PROGRAM                        *
*                                 Julian Gale                                  *
*                      Nanochemistry Research Institute                        *
*                           Department of Chemistry                            *
*                    Curtin University, Western Australia                      *
********************************************************************************
* Version = 4.3.2 * Last modified =  3rd March 2015                            *
********************************************************************************
*  optimise     - perform optimisation run                                     *
*  conp         - constant pressure calculation                                *
*  property     - calculate properties for final geometry                      *
********************************************************************************

  Job Started  at 13:10.04 22nd February   2017                               

  Number of CPUs =     1


  Total number of configurations input =   1

********************************************************************************
*  Input for Configuration =   1                                               *
********************************************************************************

  Formula = K2Mn2F6                                                     

  Number of irreducible atoms/shells =       6


  Total number atoms/shells =      16

  Dimensionality = 3               :  Bulk   


  Symmetry :

  Crystal family                   :  Tetragonal  
  Crystal class  (Groth - 1921)    :  Ditetragonal Dipyramidal             

  Space group (centrosymmetric)    :  I 4/M C M       

  Patterson group                  :  I 4/m m m

  Cartesian lattice vectors (Angstroms) :

       -2.100000    2.100000    2.100000
        2.100000   -2.100000    2.100000
        2.100000    2.100000   -2.100000

  Primitive cell parameters :            Full cell parameters :

  a =   3.6373    alpha = 109.4712       a =   4.2000    alpha =  90.0000
  b =   3.6373    beta  = 109.4712       b =   4.2000    beta  =  90.0000
  c =   3.6373    gamma = 109.4712       c =   4.2000    gamma =  90.0000

  Initial volumes (Angstroms**3):

  Primitive cell =          37.044000    Full cell =          74.088000

  Temperature of configuration =  0.000     K 

  Pressure of configuration =         0.000 GPa 

  Fractional coordinates of asymmetric unit :

--------------------------------------------------------------------------------
   No.  Atomic       x           y          z         Charge      Occupancy
        Label      (Frac)      (Frac)     (Frac)        (e)         (Frac)  
--------------------------------------------------------------------------------
      1 K     c    0.000000    0.500000    0.250000     1.40000    1.000000    
      2 Mn    c    0.000000    0.000000    0.000000     2.50000    1.000000    
      3 F     c    0.240600 *  0.740600    0.000000     0.37800    1.000000    
      4 F     c    0.000000    0.000000    0.250000     0.37800    1.000000    
      5 F     s    0.240600 *  0.740600    0.000000    -1.67800    1.000000    
      6 F     s    0.000000    0.000000    0.250000    -1.67800    1.000000    
--------------------------------------------------------------------------------


  Constraints : 

--------------------------------------------------------------------------------
  Constraint no.      Unconstrained     Constrained    Coefficient    Offset
                         Variable         Variable
--------------------------------------------------------------------------------
           1              Strain 1        Strain 2       1.00000      0.0000
           2                 3 x             3 y         1.00000      0.5000
           3                 5 x             5 y         1.00000      0.5000
--------------------------------------------------------------------------------


********************************************************************************
*  General input information                                                   *
********************************************************************************

  Species output for all configurations : 

--------------------------------------------------------------------------------
  Species    Type    Atomic    Atomic    Charge       Radii (Angs)     Library
                     Number     Mass       (e)     Cova   Ionic  VDW   Symbol
--------------------------------------------------------------------------------
    K        Core       19      39.10   1.400000   1.330  0.000  2.800          
    Mn       Core       25      54.94   2.500000   1.350  0.000  2.010          
    F        Core        9      19.00   0.378000   0.710  0.000  1.300          
    F        Shell       9       0.00  -1.678000   0.710  0.000  1.300          
--------------------------------------------------------------------------------


  Lattice summation method               =    Ewald          (3-D)
                                         =    Parry          (2-D)
                                         =    Saunders et al (1-D)
  Accuracy factor for lattice sums       =   12.000


  Time limit = Infinity

  Maximum range for interatomic potentials =    100000.000000 Angstroms

  General interatomic potentials :

--------------------------------------------------------------------------------
Atom  Types   Potential         A         B         C         D     Cutoffs(Ang)
  1     2                                                            Min    Max 
--------------------------------------------------------------------------------
K    c K    c Buckingham    0.219E+04 0.192      0.00      0.00     0.000 10.000
Mn   c F    s Buckingham    0.148E+04 0.266      0.00      0.00     0.000 10.000
F    s F    s Buckingham     912.     0.271      13.8      0.00     0.000 10.000
K    c F    s Buckingham    0.352E+04 0.267      0.00      0.00     0.000 10.000
F    c F    s Spring (c-s)   36.1      0.00      0.00      0.00     0.000  0.800
--------------------------------------------------------------------------------

********************************************************************************
*  Output for configuration   1                                                *
********************************************************************************


  Components of energy : 

--------------------------------------------------------------------------------
  Interatomic potentials     =         251.00594115 eV
  Monopole - monopole (real) =         -85.66854680 eV
  Monopole - monopole (recip)=        -143.62904973 eV
  Monopole - monopole (total)=        -229.29759653 eV
--------------------------------------------------------------------------------
  Total lattice energy : 
    Primitive unit cell      =          21.70834461 eV
    Non-primitive unit cell  =          43.41668923 eV
--------------------------------------------------------------------------------
  Total lattice energy (in kJmol-1): 
    Primitive unit cell      =            2094.5234 kJ/(mole unit cells)
    Non-primitive unit cell  =            4189.0468 kJ/(mole unit cells)
--------------------------------------------------------------------------------


  Number of variables =        4

  Maximum number of calculations  =          1000
  Maximum Hessian update interval =            10
  Maximum step size               =   1.000000000
  Maximum parameter tolerance     =   0.000010000
  Maximum function  tolerance     =   0.000010000
  Maximum gradient  tolerance     =   0.001000000
  Maximum gradient  component     =   0.010000000

  Symmetry constrained optimisation

  Symmetry used for second derivatives

  Cell parameters to be optimised using strains

  Newton-Raphson optimiser to be used

  BFGS hessian update to be used

  Start of bulk optimisation :

  Cycle:      0 Energy:        21.708345  Gnorm:    201.955122  CPU:    0.010
  ** Hessian calculated **
  Cycle:      1 Energy:      -137.269165  Gnorm:      4.105847  CPU:    0.033
  ** Hessian calculated **
  Cycle:      2 Energy:      -137.483349  Gnorm:      1.465055  CPU:    0.046
  Cycle:      3 Energy:      -137.489242  Gnorm:      0.395376  CPU:    0.056
  Cycle:      4 Energy:      -137.489359  Gnorm:      0.004545  CPU:    0.063


  **** Optimisation achieved ****


  Final energy =    -137.48935947 eV
  Final Gnorm  =       0.00074124

  Components of energy : 

--------------------------------------------------------------------------------
  Interatomic potentials     =          19.98513238 eV
  Monopole - monopole (real) =         -55.77157976 eV
  Monopole - monopole (recip)=        -101.70291210 eV
  Monopole - monopole (total)=        -157.47449185 eV
--------------------------------------------------------------------------------
  Total lattice energy : 
    Primitive unit cell      =        -137.48935947 eV
    Non-primitive unit cell  =        -274.97871894 eV
--------------------------------------------------------------------------------
  Total lattice energy (in kJmol-1): 
    Primitive unit cell      =          -13265.6215 kJ/(mole unit cells)
    Non-primitive unit cell  =          -26531.2429 kJ/(mole unit cells)
--------------------------------------------------------------------------------

  Final asymmetric unit coordinates :

--------------------------------------------------------------------------------
   No.  Atomic        x           y           z         Radius
        Label       (Frac)      (Frac)      (Frac)       (Angs) 
--------------------------------------------------------------------------------
     1  K     c     0.000000    0.500000    0.250000    0.000000
     2  Mn    c     0.000000    0.000000    0.000000    0.000000
     3  F     c     0.249994    0.749994    0.000000    0.000000
     4  F     c     0.000000    0.000000    0.250000    0.000000
     5  F     s     0.249994    0.749994    0.000000    0.000000
     6  F     s     0.000000    0.000000    0.250000    0.000000
--------------------------------------------------------------------------------

  Final Cartesian lattice vectors (Angstroms) :

       -2.648939    2.648939    3.746186
        2.648939   -2.648939    3.746186
        2.648939    2.648939   -3.746186


  Final cell parameters and derivatives :

--------------------------------------------------------------------------------
       a            5.297893 Angstrom     dE/de1(xx)     0.000538 eV/strain
       b            5.297893 Angstrom     dE/de2(yy)     0.000000 eV/strain
       c            5.297893 Angstrom     dE/de3(zz)     0.000854 eV/strain
       alpha      120.000181 Degrees      dE/de4(yz)     0.000000 eV/strain
       beta       120.000181 Degrees      dE/de5(xz)     0.000000 eV/strain
       gamma       89.999687 Degrees      dE/de6(xy)     0.000000 eV/strain
--------------------------------------------------------------------------------

  Primitive cell volume =           105.146153 Angs**3

  Density of cell =      4.770727 g/cm**3

  Non-primitive lattice parameters :

  a    =     5.297879  b   =     5.297879  c    =     7.492373
  alpha=    90.000000  beta=    90.000000  gamma=    90.000000

  Non-primitive cell volume =           210.292306 Angs**3


  Final internal derivatives :

--------------------------------------------------------------------------------
   No.  Atomic          a             b             c           Radius
        Label          (eV)          (eV)          (eV)        (eV/Angs)
--------------------------------------------------------------------------------
      1 K     c       0.000000      0.000000      0.000000      0.000000
      2 Mn    c       0.000000      0.000000      0.000000      0.000000
      3 F     c       0.000875      0.000000      0.000000      0.000000
      4 F     c       0.000000      0.000000      0.000000      0.000000
      5 F     s      -0.002647      0.000000      0.000000      0.000000
      6 F     s       0.000000      0.000000      0.000000      0.000000
--------------------------------------------------------------------------------
  Maximum abs         0.002647      0.000000      0.000000      0.000000
--------------------------------------------------------------------------------


  Born effective charge tensors : 

-------------------------------------------------------------------------------
  Atom             x           y             z
-------------------------------------------------------------------------------
   1 K     x       1.3985      0.0000      0.0000
           y       0.0000      1.3985      0.0000
           z       0.0000      0.0000      1.3985
-------------------------------------------------------------------------------
   2 Mn    x       2.0082      0.0000      0.0000
           y       0.0000      2.0082      0.0000
           z       0.0000      0.0000      2.0082
-------------------------------------------------------------------------------
   3 F     x      -1.1626      0.0811      0.0000
           y       0.0811     -1.1626      0.0000
           z       0.0000      0.0000     -1.0815
-------------------------------------------------------------------------------
   4 F     x      -1.0815      0.0000      0.0000
           y       0.0000     -1.0815      0.0000
           z       0.0000      0.0000     -1.2437
-------------------------------------------------------------------------------




  Elastic Constant Matrix: (Units=GPa)

-------------------------------------------------------------------------------
  Indices      1         2         3         4         5         6    
-------------------------------------------------------------------------------
       1    294.3118   81.6997  106.3053    0.0000    0.0000    0.0000
       2     81.6997  294.3118  106.3053    0.0000    0.0000    0.0000
       3    106.3053  106.3053  269.6976    0.0000    0.0000    0.0000
       4      0.0000    0.0000    0.0000  106.3061    0.0000    0.0000
       5      0.0000    0.0000    0.0000    0.0000  106.3061    0.0000
       6      0.0000    0.0000    0.0000    0.0000    0.0000   81.7001
-------------------------------------------------------------------------------


  Elastic Compliance Matrix: (Units=1/GPa)

-------------------------------------------------------------------------------
  Indices      1         2         3         4         5         6    
-------------------------------------------------------------------------------
       1    0.004063 -0.000641 -0.001349  0.000000  0.000000  0.000000
       2   -0.000641  0.004063 -0.001349  0.000000  0.000000  0.000000
       3   -0.001349 -0.001349  0.004771  0.000000  0.000000  0.000000
       4    0.000000  0.000000  0.000000  0.009407  0.000000  0.000000
       5    0.000000  0.000000  0.000000  0.000000  0.009407  0.000000
       6    0.000000  0.000000  0.000000  0.000000  0.000000  0.012240
-------------------------------------------------------------------------------

  Mechanical properties :

-------------------------------------------------------------------------------
  Convention :                    Reuss         Voigt         Hill
-------------------------------------------------------------------------------
  Bulk  Modulus (GPa)     =     160.77129     160.77129     160.77129
  Shear Modulus (GPa)     =      94.87568      96.46320      95.66944
-------------------------------------------------------------------------------
  Velocity S-wave (km/s)  =       4.45949       4.49664       4.47811
  Velocity P-wave (km/s)  =       7.75987       7.78841       7.77415
-------------------------------------------------------------------------------
  Compressibility (1/GPa) =    0.00622002
-------------------------------------------------------------------------------
  Stress axis :                     x             y             z
-------------------------------------------------------------------------------
  Youngs Moduli (GPa)     =     246.13496     246.13496     209.58870
-------------------------------------------------------------------------------
  Poissons Ratio (x)      =                     0.15767       0.28272
  Poissons Ratio (y)      =       0.15767                     0.28272
  Poissons Ratio (z)      =       0.33202       0.33202
-------------------------------------------------------------------------------


  Piezoelectric Strain Matrix: (Units=C/m**2)

-------------------------------------------------------------------------------
  Indices      1         2         3         4         5         6    
-------------------------------------------------------------------------------
       x     0.00000   0.00000   0.00000   0.00000   0.00000   0.00000
       y     0.00000   0.00000   0.00000   0.00000   0.00000   0.00000
       z     0.00000   0.00000   0.00000   0.00000   0.00000   0.00000
-------------------------------------------------------------------------------


  Piezoelectric Stress Matrix: (Units=10**-11 C/N)

-------------------------------------------------------------------------------
  Indices      1         2         3         4         5         6    
-------------------------------------------------------------------------------
       x     0.00000   0.00000   0.00000   0.00000   0.00000   0.00000
       y     0.00000   0.00000   0.00000   0.00000   0.00000   0.00000
       z     0.00000   0.00000   0.00000   0.00000   0.00000   0.00000
-------------------------------------------------------------------------------


  Static dielectric constant tensor : 

-------------------------------------------------------------------------------
              x         y         z
-------------------------------------------------------------------------------
       x     5.24609   0.00000   0.00000
       y     0.00000   5.24609   0.00000
       z     0.00000   0.00000   5.24627
--------------------------------------------------------------------------------

  High frequency dielectric constant tensor : 

-------------------------------------------------------------------------------
              x         y         z
-------------------------------------------------------------------------------
       x     1.77502   0.00000   0.00000
       y     0.00000   1.77502   0.00000
       z     0.00000   0.00000   1.77503
-------------------------------------------------------------------------------

  Static refractive indices : 

-------------------------------------------------------------------------------
    1 =    2.29043      2 =    2.29043      3 =    2.29047
-------------------------------------------------------------------------------

  High frequency refractive indices : 

-------------------------------------------------------------------------------
    1 =    1.33230      2 =    1.33230      3 =    1.33230
-------------------------------------------------------------------------------


  Time to end of optimisation =       0.0811 seconds


  Peak dynamic memory used =       0.59 MB 


  Timing analysis for GULP :

--------------------------------------------------------------------------------
  Task / Subroutine                                          Time (Seconds)
--------------------------------------------------------------------------------
  Calculation of reciprocal space energy and derivatives          0.0011
  Calculation of reciprocal space energy using symmetry           0.0026
  Calculation of real space energy and derivatives                0.0072
  Calculation of real space energy using symmetry                 0.0656
  Symmetry generation of equivalent positions                     0.0004
--------------------------------------------------------------------------------
  Total CPU time                                                  0.0811
--------------------------------------------------------------------------------


  CIF file written as perov.cif                                               


  Job Finished at 13:10.04 22nd February   2017                               

