********************************************************************************
*                       GENERAL UTILITY LATTICE PROGRAM                        *
*                                 Julian Gale                                  *
*                      Nanochemistry Research Institute                        *
*                           Department of Chemistry                            *
*                    Curtin University, Western Australia                      *
********************************************************************************
* Version = 4.3.2 * Last modified =  3rd March 2015                            *
********************************************************************************
*  optimise     - perform optimisation run                                     *
*  conp         - constant pressure calculation                                *
*  property     - calculate properties for final geometry                      *
********************************************************************************

  Job Started  at 13:09.59 22nd February   2017                               

  Number of CPUs =     1


  Total number of configurations input =   1

********************************************************************************
*  Input for Configuration =   1                                               *
********************************************************************************

  Formula = K2Mn2F6                                                     

  Number of irreducible atoms/shells =       6


  Total number atoms/shells =      16

  Dimensionality = 3               :  Bulk   


  Symmetry :

  Crystal family                   :  Tetragonal  
  Crystal class  (Groth - 1921)    :  Ditetragonal Dipyramidal             

  Space group (centrosymmetric)    :  I 4/M C M       

  Patterson group                  :  I 4/m m m

  Cartesian lattice vectors (Angstroms) :

       -2.100000    2.100000    2.100000
        2.100000   -2.100000    2.100000
        2.100000    2.100000   -2.100000

  Primitive cell parameters :            Full cell parameters :

  a =   3.6373    alpha = 109.4712       a =   4.2000    alpha =  90.0000
  b =   3.6373    beta  = 109.4712       b =   4.2000    beta  =  90.0000
  c =   3.6373    gamma = 109.4712       c =   4.2000    gamma =  90.0000

  Initial volumes (Angstroms**3):

  Primitive cell =          37.044000    Full cell =          74.088000

  Temperature of configuration =  0.000     K 

  Pressure of configuration =         0.000 GPa 

  Fractional coordinates of asymmetric unit :

--------------------------------------------------------------------------------
   No.  Atomic       x           y          z         Charge      Occupancy
        Label      (Frac)      (Frac)     (Frac)        (e)         (Frac)  
--------------------------------------------------------------------------------
      1 K     c    0.000000    0.500000    0.250000     1.10000    1.000000    
      2 Mn    c    0.000000    0.000000    0.000000     2.20000    1.000000    
      3 F     c    0.240600 *  0.740600    0.000000     0.37800    1.000000    
      4 F     c    0.000000    0.000000    0.250000     0.37800    1.000000    
      5 F     s    0.240600 *  0.740600    0.000000    -1.47800    1.000000    
      6 F     s    0.000000    0.000000    0.250000    -1.47800    1.000000    
--------------------------------------------------------------------------------


  Constraints : 

--------------------------------------------------------------------------------
  Constraint no.      Unconstrained     Constrained    Coefficient    Offset
                         Variable         Variable
--------------------------------------------------------------------------------
           1              Strain 1        Strain 2       1.00000      0.0000
           2                 3 x             3 y         1.00000      0.5000
           3                 5 x             5 y         1.00000      0.5000
--------------------------------------------------------------------------------


********************************************************************************
*  General input information                                                   *
********************************************************************************

  Species output for all configurations : 

--------------------------------------------------------------------------------
  Species    Type    Atomic    Atomic    Charge       Radii (Angs)     Library
                     Number     Mass       (e)     Cova   Ionic  VDW   Symbol
--------------------------------------------------------------------------------
    K        Core       19      39.10   1.100000   1.330  0.000  2.800          
    Mn       Core       25      54.94   2.200000   1.350  0.000  2.010          
    F        Core        9      19.00   0.378000   0.710  0.000  1.300          
    F        Shell       9       0.00  -1.478000   0.710  0.000  1.300          
--------------------------------------------------------------------------------


  Lattice summation method               =    Ewald          (3-D)
                                         =    Parry          (2-D)
                                         =    Saunders et al (1-D)
  Accuracy factor for lattice sums       =   12.000


  Time limit = Infinity

  Maximum range for interatomic potentials =    100000.000000 Angstroms

  General interatomic potentials :

--------------------------------------------------------------------------------
Atom  Types   Potential         A         B         C         D     Cutoffs(Ang)
  1     2                                                            Min    Max 
--------------------------------------------------------------------------------
K    c K    c Buckingham    0.219E+04 0.192      0.00      0.00     0.000 10.000
Mn   c F    s Buckingham    0.148E+04 0.266      0.00      0.00     0.000 10.000
F    s F    s Buckingham     912.     0.271      13.8      0.00     0.000 10.000
K    c F    s Buckingham    0.352E+04 0.267      0.00      0.00     0.000 10.000
F    c F    s Spring (c-s)   28.0      0.00      0.00      0.00     0.000  0.800
--------------------------------------------------------------------------------

********************************************************************************
*  Output for configuration   1                                                *
********************************************************************************


  Components of energy : 

--------------------------------------------------------------------------------
  Interatomic potentials     =         251.00594115 eV
  Monopole - monopole (real) =         -63.07366369 eV
  Monopole - monopole (recip)=        -104.72430962 eV
  Monopole - monopole (total)=        -167.79797330 eV
--------------------------------------------------------------------------------
  Total lattice energy : 
    Primitive unit cell      =          83.20796784 eV
    Non-primitive unit cell  =         166.41593569 eV
--------------------------------------------------------------------------------
  Total lattice energy (in kJmol-1): 
    Primitive unit cell      =            8028.2969 kJ/(mole unit cells)
    Non-primitive unit cell  =           16056.5939 kJ/(mole unit cells)
--------------------------------------------------------------------------------


  Number of variables =        4

  Maximum number of calculations  =          1000
  Maximum Hessian update interval =            10
  Maximum step size               =   1.000000000
  Maximum parameter tolerance     =   0.000010000
  Maximum function  tolerance     =   0.000010000
  Maximum gradient  tolerance     =   0.001000000
  Maximum gradient  component     =   0.010000000

  Symmetry constrained optimisation

  Symmetry used for second derivatives

  Cell parameters to be optimised using strains

  Newton-Raphson optimiser to be used

  BFGS hessian update to be used

  Start of bulk optimisation :

  Cycle:      0 Energy:        83.207968  Gnorm:    213.012300  CPU:    0.010
  ** Hessian calculated **
  Cycle:      1 Energy:       -95.700235  Gnorm:      5.015680  CPU:    0.032
  ** Hessian calculated **
  Cycle:      2 Energy:       -96.146143  Gnorm:      0.714175  CPU:    0.044
  Cycle:      3 Energy:       -96.156313  Gnorm:      0.300572  CPU:    0.052
  Cycle:      4 Energy:       -96.157148  Gnorm:      0.124291  CPU:    0.059
  Cycle:      5 Energy:       -96.157168  Gnorm:      0.011543  CPU:    0.067


  **** Optimisation achieved ****


  Final energy =     -96.15716814 eV
  Final Gnorm  =       0.00002672

  Components of energy : 

--------------------------------------------------------------------------------
  Interatomic potentials     =          13.30116888 eV
  Monopole - monopole (real) =         -38.96867045 eV
  Monopole - monopole (recip)=         -70.48966657 eV
  Monopole - monopole (total)=        -109.45833702 eV
--------------------------------------------------------------------------------
  Total lattice energy : 
    Primitive unit cell      =         -96.15716814 eV
    Non-primitive unit cell  =        -192.31433629 eV
--------------------------------------------------------------------------------
  Total lattice energy (in kJmol-1): 
    Primitive unit cell      =           -9277.6968 kJ/(mole unit cells)
    Non-primitive unit cell  =          -18555.3937 kJ/(mole unit cells)
--------------------------------------------------------------------------------

  Final asymmetric unit coordinates :

--------------------------------------------------------------------------------
   No.  Atomic        x           y           z         Radius
        Label       (Frac)      (Frac)      (Frac)       (Angs) 
--------------------------------------------------------------------------------
     1  K     c     0.000000    0.500000    0.250000    0.000000
     2  Mn    c     0.000000    0.000000    0.000000    0.000000
     3  F     c     0.250000    0.750000    0.000000    0.000000
     4  F     c     0.000000    0.000000    0.250000    0.000000
     5  F     s     0.250000    0.750000    0.000000    0.000000
     6  F     s     0.000000    0.000000    0.250000    0.000000
--------------------------------------------------------------------------------

  Final Cartesian lattice vectors (Angstroms) :

       -2.786369    2.786369    3.940517
        2.786369   -2.786369    3.940517
        2.786369    2.786369   -3.940517


  Final cell parameters and derivatives :

--------------------------------------------------------------------------------
       a            5.572736 Angstrom     dE/de1(xx)    -0.000012 eV/strain
       b            5.572736 Angstrom     dE/de2(yy)     0.000000 eV/strain
       c            5.572736 Angstrom     dE/de3(zz)    -0.000098 eV/strain
       alpha      119.999966 Degrees      dE/de4(yz)     0.000000 eV/strain
       beta       119.999966 Degrees      dE/de5(xz)     0.000000 eV/strain
       gamma       90.000058 Degrees      dE/de6(xy)     0.000000 eV/strain
--------------------------------------------------------------------------------

  Primitive cell volume =           122.374410 Angs**3

  Density of cell =      4.099089 g/cm**3

  Non-primitive lattice parameters :

  a    =     5.572739  b   =     5.572739  c    =     7.881035
  alpha=    90.000000  beta=    90.000000  gamma=    90.000000

  Non-primitive cell volume =           244.748821 Angs**3


  Final internal derivatives :

--------------------------------------------------------------------------------
   No.  Atomic          a             b             c           Radius
        Label          (eV)          (eV)          (eV)        (eV/Angs)
--------------------------------------------------------------------------------
      1 K     c       0.000000      0.000000      0.000000      0.000000
      2 Mn    c       0.000000      0.000000      0.000000      0.000000
      3 F     c       0.000007      0.000000      0.000000      0.000000
      4 F     c       0.000000      0.000000      0.000000      0.000000
      5 F     s      -0.000039      0.000000      0.000000      0.000000
      6 F     s       0.000000      0.000000      0.000000      0.000000
--------------------------------------------------------------------------------
  Maximum abs         0.000039      0.000000      0.000000      0.000000
--------------------------------------------------------------------------------


  Born effective charge tensors : 

-------------------------------------------------------------------------------
  Atom             x           y             z
-------------------------------------------------------------------------------
   1 K     x       1.0967      0.0000      0.0000
           y       0.0000      1.0967      0.0000
           z       0.0000      0.0000      1.0966
-------------------------------------------------------------------------------
   2 Mn    x       1.7628      0.0000      0.0000
           y       0.0000      1.7628      0.0000
           z       0.0000      0.0000      1.7628
-------------------------------------------------------------------------------
   3 F     x      -0.9699      0.0504      0.0000
           y       0.0504     -0.9699      0.0000
           z       0.0000      0.0000     -0.9195
-------------------------------------------------------------------------------
   4 F     x      -0.9195      0.0000      0.0000
           y       0.0000     -0.9195      0.0000
           z       0.0000      0.0000     -1.0203
-------------------------------------------------------------------------------




  Elastic Constant Matrix: (Units=GPa)

-------------------------------------------------------------------------------
  Indices      1         2         3         4         5         6    
-------------------------------------------------------------------------------
       1    182.7776   59.1962   61.7907    0.0000    0.0000    0.0000
       2     59.1962  182.7776   61.7907    0.0000    0.0000    0.0000
       3     61.7907   61.7907  180.1842    0.0000    0.0000    0.0000
       4      0.0000    0.0000    0.0000   61.7907    0.0000    0.0000
       5      0.0000    0.0000    0.0000    0.0000   61.7907    0.0000
       6      0.0000    0.0000    0.0000    0.0000    0.0000   59.1962
-------------------------------------------------------------------------------


  Elastic Compliance Matrix: (Units=1/GPa)

-------------------------------------------------------------------------------
  Indices      1         2         3         4         5         6    
-------------------------------------------------------------------------------
       1    0.006551 -0.001541 -0.001718  0.000000  0.000000  0.000000
       2   -0.001541  0.006551 -0.001718  0.000000  0.000000  0.000000
       3   -0.001718 -0.001718  0.006728  0.000000  0.000000  0.000000
       4    0.000000  0.000000  0.000000  0.016184  0.000000  0.000000
       5    0.000000  0.000000  0.000000  0.000000  0.016184  0.000000
       6    0.000000  0.000000  0.000000  0.000000  0.000000  0.016893
-------------------------------------------------------------------------------

  Mechanical properties :

-------------------------------------------------------------------------------
  Convention :                    Reuss         Voigt         Hill
-------------------------------------------------------------------------------
  Bulk  Modulus (GPa)     =     101.25498     101.25498     101.25498
  Shear Modulus (GPa)     =      60.72614      60.75296      60.73955
-------------------------------------------------------------------------------
  Velocity S-wave (km/s)  =       3.84897       3.84982       3.84939
  Velocity P-wave (km/s)  =       6.66742       6.66808       6.66775
-------------------------------------------------------------------------------
  Compressibility (1/GPa) =    0.00987606
-------------------------------------------------------------------------------
  Stress axis :                     x             y             z
-------------------------------------------------------------------------------
  Youngs Moduli (GPa)     =     152.64836     152.64836     148.62633
-------------------------------------------------------------------------------
  Poissons Ratio (x)      =                     0.23521       0.25536
  Poissons Ratio (y)      =       0.23521                     0.25536
  Poissons Ratio (z)      =       0.26227       0.26227
-------------------------------------------------------------------------------


  Piezoelectric Strain Matrix: (Units=C/m**2)

-------------------------------------------------------------------------------
  Indices      1         2         3         4         5         6    
-------------------------------------------------------------------------------
       x     0.00000   0.00000   0.00000   0.00000   0.00000   0.00000
       y     0.00000   0.00000   0.00000   0.00000   0.00000   0.00000
       z     0.00000   0.00000   0.00000   0.00000   0.00000   0.00000
-------------------------------------------------------------------------------


  Piezoelectric Stress Matrix: (Units=10**-11 C/N)

-------------------------------------------------------------------------------
  Indices      1         2         3         4         5         6    
-------------------------------------------------------------------------------
       x     0.00000   0.00000   0.00000   0.00000   0.00000   0.00000
       y     0.00000   0.00000   0.00000   0.00000   0.00000   0.00000
       z     0.00000   0.00000   0.00000   0.00000   0.00000   0.00000
-------------------------------------------------------------------------------


  Static dielectric constant tensor : 

-------------------------------------------------------------------------------
              x         y         z
-------------------------------------------------------------------------------
       x     4.54702   0.00000   0.00000
       y     0.00000   4.54702   0.00000
       z     0.00000   0.00000   4.54700
--------------------------------------------------------------------------------

  High frequency dielectric constant tensor : 

-------------------------------------------------------------------------------
              x         y         z
-------------------------------------------------------------------------------
       x     1.66356   0.00000   0.00000
       y     0.00000   1.66356   0.00000
       z     0.00000   0.00000   1.66356
-------------------------------------------------------------------------------

  Static refractive indices : 

-------------------------------------------------------------------------------
    1 =    2.13237      2 =    2.13238      3 =    2.13238
-------------------------------------------------------------------------------

  High frequency refractive indices : 

-------------------------------------------------------------------------------
    1 =    1.28979      2 =    1.28979      3 =    1.28979
-------------------------------------------------------------------------------


  Time to end of optimisation =       0.0826 seconds


  Peak dynamic memory used =       0.59 MB 


  Timing analysis for GULP :

--------------------------------------------------------------------------------
  Task / Subroutine                                          Time (Seconds)
--------------------------------------------------------------------------------
  Calculation of reciprocal space energy and derivatives          0.0011
  Calculation of reciprocal space energy using symmetry           0.0028
  Calculation of real space energy and derivatives                0.0067
  Calculation of real space energy using symmetry                 0.0683
  Symmetry generation of equivalent positions                     0.0004
--------------------------------------------------------------------------------
  Total CPU time                                                  0.0827
--------------------------------------------------------------------------------


  CIF file written as perov.cif                                               


  Job Finished at 13:10.00 22nd February   2017                               

