********************************************************************************
*                       GENERAL UTILITY LATTICE PROGRAM                        *
*                                 Julian Gale                                  *
*                      Nanochemistry Research Institute                        *
*                           Department of Chemistry                            *
*                    Curtin University, Western Australia                      *
********************************************************************************
* Version = 4.3.2 * Last modified =  3rd March 2015                            *
********************************************************************************
*  optimise     - perform optimisation run                                     *
*  conp         - constant pressure calculation                                *
*  property     - calculate properties for final geometry                      *
********************************************************************************

  Job Started  at 13:09.57 22nd February   2017                               

  Number of CPUs =     1


  Total number of configurations input =   1

********************************************************************************
*  Input for Configuration =   1                                               *
********************************************************************************

  Formula = K2Mn2F6                                                     

  Number of irreducible atoms/shells =       6


  Total number atoms/shells =      16

  Dimensionality = 3               :  Bulk   


  Symmetry :

  Crystal family                   :  Tetragonal  
  Crystal class  (Groth - 1921)    :  Ditetragonal Dipyramidal             

  Space group (centrosymmetric)    :  I 4/M C M       

  Patterson group                  :  I 4/m m m

  Cartesian lattice vectors (Angstroms) :

       -2.100000    2.100000    2.100000
        2.100000   -2.100000    2.100000
        2.100000    2.100000   -2.100000

  Primitive cell parameters :            Full cell parameters :

  a =   3.6373    alpha = 109.4712       a =   4.2000    alpha =  90.0000
  b =   3.6373    beta  = 109.4712       b =   4.2000    beta  =  90.0000
  c =   3.6373    gamma = 109.4712       c =   4.2000    gamma =  90.0000

  Initial volumes (Angstroms**3):

  Primitive cell =          37.044000    Full cell =          74.088000

  Temperature of configuration =  0.000     K 

  Pressure of configuration =         0.000 GPa 

  Fractional coordinates of asymmetric unit :

--------------------------------------------------------------------------------
   No.  Atomic       x           y          z         Charge      Occupancy
        Label      (Frac)      (Frac)     (Frac)        (e)         (Frac)  
--------------------------------------------------------------------------------
      1 K     c    0.000000    0.500000    0.250000     0.90000    1.000000    
      2 Mn    c    0.000000    0.000000    0.000000     2.50000    1.000000    
      3 F     c    0.240600 *  0.740600    0.000000     0.37800    1.000000    
      4 F     c    0.000000    0.000000    0.250000     0.37800    1.000000    
      5 F     s    0.240600 *  0.740600    0.000000    -1.51133    1.000000    
      6 F     s    0.000000    0.000000    0.250000    -1.51133    1.000000    
--------------------------------------------------------------------------------


  Constraints : 

--------------------------------------------------------------------------------
  Constraint no.      Unconstrained     Constrained    Coefficient    Offset
                         Variable         Variable
--------------------------------------------------------------------------------
           1              Strain 1        Strain 2       1.00000      0.0000
           2                 3 x             3 y         1.00000      0.5000
           3                 5 x             5 y         1.00000      0.5000
--------------------------------------------------------------------------------


********************************************************************************
*  General input information                                                   *
********************************************************************************

  Species output for all configurations : 

--------------------------------------------------------------------------------
  Species    Type    Atomic    Atomic    Charge       Radii (Angs)     Library
                     Number     Mass       (e)     Cova   Ionic  VDW   Symbol
--------------------------------------------------------------------------------
    K        Core       19      39.10   0.900000   1.330  0.000  2.800          
    Mn       Core       25      54.94   2.500000   1.350  0.000  2.010          
    F        Core        9      19.00   0.378000   0.710  0.000  1.300          
    F        Shell       9       0.00  -1.511333   0.710  0.000  1.300          
--------------------------------------------------------------------------------


  Lattice summation method               =    Ewald          (3-D)
                                         =    Parry          (2-D)
                                         =    Saunders et al (1-D)
  Accuracy factor for lattice sums       =   12.000


  Time limit = Infinity

  Maximum range for interatomic potentials =    100000.000000 Angstroms

  General interatomic potentials :

--------------------------------------------------------------------------------
Atom  Types   Potential         A         B         C         D     Cutoffs(Ang)
  1     2                                                            Min    Max 
--------------------------------------------------------------------------------
K    c K    c Buckingham    0.219E+04 0.192      0.00      0.00     0.000 10.000
Mn   c F    s Buckingham    0.148E+04 0.266      0.00      0.00     0.000 10.000
F    s F    s Buckingham     912.     0.271      13.8      0.00     0.000 10.000
K    c F    s Buckingham    0.352E+04 0.267      0.00      0.00     0.000 10.000
F    c F    s Spring (c-s)   29.3      0.00      0.00      0.00     0.000  0.800
--------------------------------------------------------------------------------

********************************************************************************
*  Output for configuration   1                                                *
********************************************************************************


  Components of energy : 

--------------------------------------------------------------------------------
  Interatomic potentials     =         251.00594115 eV
  Monopole - monopole (real) =         -71.96977509 eV
  Monopole - monopole (recip)=        -117.94296202 eV
  Monopole - monopole (total)=        -189.91273711 eV
--------------------------------------------------------------------------------
  Total lattice energy : 
    Primitive unit cell      =          61.09320404 eV
    Non-primitive unit cell  =         122.18640808 eV
--------------------------------------------------------------------------------
  Total lattice energy (in kJmol-1): 
    Primitive unit cell      =            5894.5603 kJ/(mole unit cells)
    Non-primitive unit cell  =           11789.1206 kJ/(mole unit cells)
--------------------------------------------------------------------------------


  Number of variables =        4

  Maximum number of calculations  =          1000
  Maximum Hessian update interval =            10
  Maximum step size               =   1.000000000
  Maximum parameter tolerance     =   0.000010000
  Maximum function  tolerance     =   0.000010000
  Maximum gradient  tolerance     =   0.001000000
  Maximum gradient  component     =   0.010000000

  Symmetry constrained optimisation

  Symmetry used for second derivatives

  Cell parameters to be optimised using strains

  Newton-Raphson optimiser to be used

  BFGS hessian update to be used

  Start of bulk optimisation :

  Cycle:      0 Energy:        61.093204  Gnorm:    209.449189  CPU:    0.010
  ** Hessian calculated **
  Cycle:      1 Energy:      -110.232924  Gnorm:      4.308011  CPU:    0.031
  ** Hessian calculated **
  Cycle:      2 Energy:      -110.585241  Gnorm:      0.862518  CPU:    0.044
  Cycle:      3 Energy:      -110.600653  Gnorm:      0.407560  CPU:    0.051
  Cycle:      4 Energy:      -110.601388  Gnorm:      0.180415  CPU:    0.059
  Cycle:      5 Energy:      -110.601422  Gnorm:      0.009120  CPU:    0.066


  **** Optimisation achieved ****


  Final energy =    -110.60142235 eV
  Final Gnorm  =       0.00078291

  Components of energy : 

--------------------------------------------------------------------------------
  Interatomic potentials     =          15.59619788 eV
  Monopole - monopole (real) =         -28.18051573 eV
  Monopole - monopole (recip)=         -98.01710450 eV
  Monopole - monopole (total)=        -126.19762022 eV
--------------------------------------------------------------------------------
  Total lattice energy : 
    Primitive unit cell      =        -110.60142235 eV
    Non-primitive unit cell  =        -221.20284469 eV
--------------------------------------------------------------------------------
  Total lattice energy (in kJmol-1): 
    Primitive unit cell      =          -10671.3466 kJ/(mole unit cells)
    Non-primitive unit cell  =          -21342.6931 kJ/(mole unit cells)
--------------------------------------------------------------------------------

  Final asymmetric unit coordinates :

--------------------------------------------------------------------------------
   No.  Atomic        x           y           z         Radius
        Label       (Frac)      (Frac)      (Frac)       (Angs) 
--------------------------------------------------------------------------------
     1  K     c     0.000000    0.500000    0.250000    0.000000
     2  Mn    c     0.000000    0.000000    0.000000    0.000000
     3  F     c     0.250002    0.750002    0.000000    0.000000
     4  F     c     0.000000    0.000000    0.250000    0.000000
     5  F     s     0.250002    0.750002    0.000000    0.000000
     6  F     s     0.000000    0.000000    0.250000    0.000000
--------------------------------------------------------------------------------

  Final Cartesian lattice vectors (Angstroms) :

       -2.732496    2.732496    3.864328
        2.732496   -2.732496    3.864328
        2.732496    2.732496   -3.864328


  Final cell parameters and derivatives :

--------------------------------------------------------------------------------
       a            5.464989 Angstrom     dE/de1(xx)    -0.000287 eV/strain
       b            5.464989 Angstrom     dE/de2(yy)     0.000000 eV/strain
       c            5.464989 Angstrom     dE/de3(zz)    -0.000265 eV/strain
       alpha      119.999957 Degrees      dE/de4(yz)     0.000000 eV/strain
       beta       119.999957 Degrees      dE/de5(xz)     0.000000 eV/strain
       gamma       90.000074 Degrees      dE/de6(xy)     0.000000 eV/strain
--------------------------------------------------------------------------------

  Primitive cell volume =           115.412591 Angs**3

  Density of cell =      4.346351 g/cm**3

  Non-primitive lattice parameters :

  a    =     5.464993  b   =     5.464993  c    =     7.728657
  alpha=    90.000000  beta=    90.000000  gamma=    90.000000

  Non-primitive cell volume =           230.825183 Angs**3


  Final internal derivatives :

--------------------------------------------------------------------------------
   No.  Atomic          a             b             c           Radius
        Label          (eV)          (eV)          (eV)        (eV/Angs)
--------------------------------------------------------------------------------
      1 K     c       0.000000      0.000000      0.000000      0.000000
      2 Mn    c       0.000000      0.000000      0.000000      0.000000
      3 F     c      -0.001488      0.000000      0.000000      0.000000
      4 F     c       0.000000      0.000000      0.000000      0.000000
      5 F     s       0.002728      0.000000      0.000000      0.000000
      6 F     s       0.000000      0.000000      0.000000      0.000000
--------------------------------------------------------------------------------
  Maximum abs         0.002728      0.000000      0.000000      0.000000
--------------------------------------------------------------------------------


  Born effective charge tensors : 

-------------------------------------------------------------------------------
  Atom             x           y             z
-------------------------------------------------------------------------------
   1 K     x       0.8229      0.0000      0.0000
           y       0.0000      0.8229      0.0000
           z       0.0000      0.0000      0.8229
-------------------------------------------------------------------------------
   2 Mn    x       2.0950      0.0000      0.0000
           y       0.0000      2.0950      0.0000
           z       0.0000      0.0000      2.0950
-------------------------------------------------------------------------------
   3 F     x      -1.0156      0.1289      0.0000
           y       0.1289     -1.0156      0.0000
           z       0.0000      0.0000     -0.8868
-------------------------------------------------------------------------------
   4 F     x      -0.8867      0.0000      0.0000
           y       0.0000     -0.8867      0.0000
           z       0.0000      0.0000     -1.1444
-------------------------------------------------------------------------------




  Elastic Constant Matrix: (Units=GPa)

-------------------------------------------------------------------------------
  Indices      1         2         3         4         5         6    
-------------------------------------------------------------------------------
       1    220.7399   65.4152   77.6626    0.0000    0.0000    0.0000
       2     65.4152  220.7399   77.6626    0.0000    0.0000    0.0000
       3     77.6626   77.6626  208.4942    0.0000    0.0000    0.0000
       4      0.0000    0.0000    0.0000   77.6623    0.0000    0.0000
       5      0.0000    0.0000    0.0000    0.0000   77.6623    0.0000
       6      0.0000    0.0000    0.0000    0.0000    0.0000   65.4150
-------------------------------------------------------------------------------


  Elastic Compliance Matrix: (Units=1/GPa)

-------------------------------------------------------------------------------
  Indices      1         2         3         4         5         6    
-------------------------------------------------------------------------------
       1    0.005409 -0.001029 -0.001632  0.000000  0.000000  0.000000
       2   -0.001029  0.005409 -0.001632  0.000000  0.000000  0.000000
       3   -0.001632 -0.001632  0.006012  0.000000  0.000000  0.000000
       4    0.000000  0.000000  0.000000  0.012876  0.000000  0.000000
       5    0.000000  0.000000  0.000000  0.000000  0.012876  0.000000
       6    0.000000  0.000000  0.000000  0.000000  0.000000  0.015287
-------------------------------------------------------------------------------

  Mechanical properties :

-------------------------------------------------------------------------------
  Convention :                    Reuss         Voigt         Hill
-------------------------------------------------------------------------------
  Bulk  Modulus (GPa)     =     121.27278     121.27278     121.27278
  Shear Modulus (GPa)     =      72.25155      72.76351      72.50753
-------------------------------------------------------------------------------
  Velocity S-wave (km/s)  =       4.07719       4.09161       4.08441
  Velocity P-wave (km/s)  =       7.07579       7.08688       7.08134
-------------------------------------------------------------------------------
  Compressibility (1/GPa) =    0.00824587
-------------------------------------------------------------------------------
  Stress axis :                     x             y             z
-------------------------------------------------------------------------------
  Youngs Moduli (GPa)     =     184.87063     184.87063     166.33883
-------------------------------------------------------------------------------
  Poissons Ratio (x)      =                     0.19022       0.27140
  Poissons Ratio (y)      =       0.19022                     0.27140
  Poissons Ratio (z)      =       0.30164       0.30164
-------------------------------------------------------------------------------


  Piezoelectric Strain Matrix: (Units=C/m**2)

-------------------------------------------------------------------------------
  Indices      1         2         3         4         5         6    
-------------------------------------------------------------------------------
       x     0.00000   0.00000   0.00000   0.00000   0.00000   0.00000
       y     0.00000   0.00000   0.00000   0.00000   0.00000   0.00000
       z     0.00000   0.00000   0.00000   0.00000   0.00000   0.00000
-------------------------------------------------------------------------------


  Piezoelectric Stress Matrix: (Units=10**-11 C/N)

-------------------------------------------------------------------------------
  Indices      1         2         3         4         5         6    
-------------------------------------------------------------------------------
       x     0.00000   0.00000   0.00000   0.00000   0.00000   0.00000
       y     0.00000   0.00000   0.00000   0.00000   0.00000   0.00000
       z     0.00000   0.00000   0.00000   0.00000   0.00000   0.00000
-------------------------------------------------------------------------------


  Static dielectric constant tensor : 

-------------------------------------------------------------------------------
              x         y         z
-------------------------------------------------------------------------------
       x     3.88777   0.00000   0.00000
       y     0.00000   3.88777   0.00000
       z     0.00000   0.00000   3.88775
--------------------------------------------------------------------------------

  High frequency dielectric constant tensor : 

-------------------------------------------------------------------------------
              x         y         z
-------------------------------------------------------------------------------
       x     1.70090   0.00000   0.00000
       y     0.00000   1.70090   0.00000
       z     0.00000   0.00000   1.70088
-------------------------------------------------------------------------------

  Static refractive indices : 

-------------------------------------------------------------------------------
    1 =    1.97174      2 =    1.97174      3 =    1.97174
-------------------------------------------------------------------------------

  High frequency refractive indices : 

-------------------------------------------------------------------------------
    1 =    1.30418      2 =    1.30419      3 =    1.30419
-------------------------------------------------------------------------------


  Time to end of optimisation =       0.0824 seconds


  Peak dynamic memory used =       0.59 MB 


  Timing analysis for GULP :

--------------------------------------------------------------------------------
  Task / Subroutine                                          Time (Seconds)
--------------------------------------------------------------------------------
  Calculation of reciprocal space energy and derivatives          0.0011
  Calculation of reciprocal space energy using symmetry           0.0028
  Calculation of real space energy and derivatives                0.0067
  Calculation of real space energy using symmetry                 0.0680
  Symmetry generation of equivalent positions                     0.0004
--------------------------------------------------------------------------------
  Total CPU time                                                  0.0824
--------------------------------------------------------------------------------


  CIF file written as perov.cif                                               


  Job Finished at 13:09.57 22nd February   2017                               

