********************************************************************************
*                       GENERAL UTILITY LATTICE PROGRAM                        *
*                                 Julian Gale                                  *
*                      Nanochemistry Research Institute                        *
*                           Department of Chemistry                            *
*                    Curtin University, Western Australia                      *
********************************************************************************
* Version = 4.3.2 * Last modified =  3rd March 2015                            *
********************************************************************************
*  optimise     - perform optimisation run                                     *
*  conp         - constant pressure calculation                                *
*  property     - calculate properties for final geometry                      *
********************************************************************************

  Job Started  at 13:10.03 22nd February   2017                               

  Number of CPUs =     1


  Total number of configurations input =   1

********************************************************************************
*  Input for Configuration =   1                                               *
********************************************************************************

  Formula = K2Mn2F6                                                     

  Number of irreducible atoms/shells =       6


  Total number atoms/shells =      16

  Dimensionality = 3               :  Bulk   


  Symmetry :

  Crystal family                   :  Tetragonal  
  Crystal class  (Groth - 1921)    :  Ditetragonal Dipyramidal             

  Space group (centrosymmetric)    :  I 4/M C M       

  Patterson group                  :  I 4/m m m

  Cartesian lattice vectors (Angstroms) :

       -2.100000    2.100000    2.100000
        2.100000   -2.100000    2.100000
        2.100000    2.100000   -2.100000

  Primitive cell parameters :            Full cell parameters :

  a =   3.6373    alpha = 109.4712       a =   4.2000    alpha =  90.0000
  b =   3.6373    beta  = 109.4712       b =   4.2000    beta  =  90.0000
  c =   3.6373    gamma = 109.4712       c =   4.2000    gamma =  90.0000

  Initial volumes (Angstroms**3):

  Primitive cell =          37.044000    Full cell =          74.088000

  Temperature of configuration =  0.000     K 

  Pressure of configuration =         0.000 GPa 

  Fractional coordinates of asymmetric unit :

--------------------------------------------------------------------------------
   No.  Atomic       x           y          z         Charge      Occupancy
        Label      (Frac)      (Frac)     (Frac)        (e)         (Frac)  
--------------------------------------------------------------------------------
      1 K     c    0.000000    0.500000    0.250000     1.40000    1.000000    
      2 Mn    c    0.000000    0.000000    0.000000     1.70000    1.000000    
      3 F     c    0.240600 *  0.740600    0.000000     0.37800    1.000000    
      4 F     c    0.000000    0.000000    0.250000     0.37800    1.000000    
      5 F     s    0.240600 *  0.740600    0.000000    -1.41133    1.000000    
      6 F     s    0.000000    0.000000    0.250000    -1.41133    1.000000    
--------------------------------------------------------------------------------


  Constraints : 

--------------------------------------------------------------------------------
  Constraint no.      Unconstrained     Constrained    Coefficient    Offset
                         Variable         Variable
--------------------------------------------------------------------------------
           1              Strain 1        Strain 2       1.00000      0.0000
           2                 3 x             3 y         1.00000      0.5000
           3                 5 x             5 y         1.00000      0.5000
--------------------------------------------------------------------------------


********************************************************************************
*  General input information                                                   *
********************************************************************************

  Species output for all configurations : 

--------------------------------------------------------------------------------
  Species    Type    Atomic    Atomic    Charge       Radii (Angs)     Library
                     Number     Mass       (e)     Cova   Ionic  VDW   Symbol
--------------------------------------------------------------------------------
    K        Core       19      39.10   1.400000   1.330  0.000  2.800          
    Mn       Core       25      54.94   1.700000   1.350  0.000  2.010          
    F        Core        9      19.00   0.378000   0.710  0.000  1.300          
    F        Shell       9       0.00  -1.411333   0.710  0.000  1.300          
--------------------------------------------------------------------------------


  Lattice summation method               =    Ewald          (3-D)
                                         =    Parry          (2-D)
                                         =    Saunders et al (1-D)
  Accuracy factor for lattice sums       =   12.000


  Time limit = Infinity

  Maximum range for interatomic potentials =    100000.000000 Angstroms

  General interatomic potentials :

--------------------------------------------------------------------------------
Atom  Types   Potential         A         B         C         D     Cutoffs(Ang)
  1     2                                                            Min    Max 
--------------------------------------------------------------------------------
K    c K    c Buckingham    0.219E+04 0.192      0.00      0.00     0.000 10.000
Mn   c F    s Buckingham    0.148E+04 0.266      0.00      0.00     0.000 10.000
F    s F    s Buckingham     912.     0.271      13.8      0.00     0.000 10.000
K    c F    s Buckingham    0.352E+04 0.267      0.00      0.00     0.000 10.000
F    c F    s Spring (c-s)   25.5      0.00      0.00      0.00     0.000  0.800
--------------------------------------------------------------------------------

********************************************************************************
*  Output for configuration   1                                                *
********************************************************************************


  Components of energy : 

--------------------------------------------------------------------------------
  Interatomic potentials     =         251.00594115 eV
  Monopole - monopole (real) =         -48.70246059 eV
  Monopole - monopole (recip)=         -86.70642891 eV
  Monopole - monopole (total)=        -135.40888950 eV
--------------------------------------------------------------------------------
  Total lattice energy : 
    Primitive unit cell      =         115.59705164 eV
    Non-primitive unit cell  =         231.19410329 eV
--------------------------------------------------------------------------------
  Total lattice energy (in kJmol-1): 
    Primitive unit cell      =           11153.3484 kJ/(mole unit cells)
    Non-primitive unit cell  =           22306.6968 kJ/(mole unit cells)
--------------------------------------------------------------------------------


  Number of variables =        4

  Maximum number of calculations  =          1000
  Maximum Hessian update interval =            10
  Maximum step size               =   1.000000000
  Maximum parameter tolerance     =   0.000010000
  Maximum function  tolerance     =   0.000010000
  Maximum gradient  tolerance     =   0.001000000
  Maximum gradient  component     =   0.010000000

  Symmetry constrained optimisation

  Symmetry used for second derivatives

  Cell parameters to be optimised using strains

  Newton-Raphson optimiser to be used

  BFGS hessian update to be used

  Start of bulk optimisation :

  Cycle:      0 Energy:       115.597052  Gnorm:    218.259352  CPU:    0.010
  ** Hessian calculated **
  Cycle:      1 Energy:       -75.235278  Gnorm:      7.332282  CPU:    0.032
  ** Hessian calculated **
  Cycle:      2 Energy:       -75.982732  Gnorm:      6.424551  CPU:    0.044
  Cycle:      3 Energy:       -76.017031  Gnorm:      1.320037  CPU:    0.051
  ** Hessian calculated **
  Cycle:      4 Energy:       -76.067612  Gnorm:      0.498895  CPU:    0.065
  Cycle:      5 Energy:       -76.080325  Gnorm:      0.434072  CPU:    0.075
  Cycle:      6 Energy:       -76.082579  Gnorm:      0.132951  CPU:    0.084
  Cycle:      7 Energy:       -76.082624  Gnorm:      0.126803  CPU:    0.101
  Cycle:      8 Energy:       -76.082624  Gnorm:      0.126803  CPU:    0.111
  ** Hessian calculated **
  Cycle:      9 Energy:       -76.082624  Gnorm:      0.126803  CPU:    0.125
  ** Hessian calculated **


  **** Conditions for a minimum have not been satisfied. However ****
  **** no lower point can be found - treat results with caution  ****
  **** unless gradient norm is small (less than 0.1)             ****


  Final energy =     -76.08262433 eV
  Final Gnorm  =       0.12680296

  Components of energy : 

--------------------------------------------------------------------------------
  Interatomic potentials     =          10.10033568 eV
  Monopole - monopole (real) =         -14.25698790 eV
  Monopole - monopole (recip)=         -71.92597211 eV
  Monopole - monopole (total)=         -86.18296000 eV
--------------------------------------------------------------------------------
  Total lattice energy : 
    Primitive unit cell      =         -76.08262433 eV
    Non-primitive unit cell  =        -152.16524865 eV
--------------------------------------------------------------------------------
  Total lattice energy (in kJmol-1): 
    Primitive unit cell      =           -7340.8102 kJ/(mole unit cells)
    Non-primitive unit cell  =          -14681.6204 kJ/(mole unit cells)
--------------------------------------------------------------------------------

  Final asymmetric unit coordinates :

--------------------------------------------------------------------------------
   No.  Atomic        x           y           z         Radius
        Label       (Frac)      (Frac)      (Frac)       (Angs) 
--------------------------------------------------------------------------------
     1  K     c     0.000000    0.500000    0.250000    0.000000
     2  Mn    c     0.000000    0.000000    0.000000    0.000000
     3  F     c     0.303269    0.803269    0.000000    0.000000
     4  F     c     0.000000    0.000000    0.250000    0.000000
     5  F     s     0.302933    0.802933    0.000000    0.000000
     6  F     s     0.000000    0.000000    0.250000    0.000000
--------------------------------------------------------------------------------

  Final Cartesian lattice vectors (Angstroms) :

       -2.855861    2.855861    4.104059
        2.855861   -2.855861    4.104059
        2.855861    2.855861   -4.104059


  Final cell parameters and derivatives :

--------------------------------------------------------------------------------
       a            5.758054 Angstrom     dE/de1(xx)    -0.421456 eV/strain
       b            5.758054 Angstrom     dE/de2(yy)     0.000000 eV/strain
       c            5.758054 Angstrom     dE/de3(zz)    -0.280397 eV/strain
       alpha      120.531637 Degrees      dE/de4(yz)     0.000000 eV/strain
       beta       120.531637 Degrees      dE/de5(xz)     0.000000 eV/strain
       gamma       89.081617 Degrees      dE/de6(xy)     0.000000 eV/strain
--------------------------------------------------------------------------------

  Primitive cell volume =           133.889902 Angs**3

  Density of cell =      3.746538 g/cm**3

  Non-primitive lattice parameters :

  a    =     5.711723  b   =     5.711723  c    =     8.208118
  alpha=    90.000000  beta=    90.000000  gamma=    90.000000

  Non-primitive cell volume =           267.779804 Angs**3


  Final internal derivatives :

--------------------------------------------------------------------------------
   No.  Atomic          a             b             c           Radius
        Label          (eV)          (eV)          (eV)        (eV/Angs)
--------------------------------------------------------------------------------
      1 K     c       0.000000      0.000000      0.000000      0.000000
      2 Mn    c       0.000000      0.000000      0.000000      0.000000
      3 F     c      -0.030573      0.000000      0.000000      0.000000
      4 F     c       0.000000      0.000000      0.000000      0.000000
      5 F     s       0.009009      0.000000      0.000000      0.000000
      6 F     s       0.000000      0.000000      0.000000      0.000000
--------------------------------------------------------------------------------
  Maximum abs         0.030573      0.000000      0.000000      0.000000
--------------------------------------------------------------------------------


  Born effective charge tensors : 

-------------------------------------------------------------------------------
  Atom             x           y             z
-------------------------------------------------------------------------------
   1 K     x       1.4535      0.0000      0.0000
           y       0.0000      1.4535      0.0000
           z       0.0000      0.0000      1.3949
-------------------------------------------------------------------------------
   2 Mn    x       1.3324      0.0003      0.0000
           y      -0.0003      1.3324      0.0000
           z       0.0000      0.0000      1.2925
-------------------------------------------------------------------------------
   3 F     x      -0.9109     -0.0221      0.0000
           y      -0.0221     -0.9109      0.0000
           z       0.0000      0.0000     -0.9160
-------------------------------------------------------------------------------
   4 F     x      -0.9640      0.0000      0.0000
           y       0.0000     -0.9640      0.0000
           z       0.0000      0.0000     -0.8554
-------------------------------------------------------------------------------




  Elastic Constant Matrix: (Units=GPa)

-------------------------------------------------------------------------------
  Indices      1         2         3         4         5         6    
-------------------------------------------------------------------------------
       1    118.5405   52.1306   48.9239    0.0000    0.0000    0.0000
       2     52.1306  118.5405   48.9239    0.0000    0.0000    0.0000
       3     48.9239   48.9239  158.3729    0.0000    0.0000    0.0000
       4      0.0000    0.0000    0.0000   40.8557    0.0000    0.0000
       5      0.0000    0.0000    0.0000    0.0000   40.8557    0.0000
       6      0.0000    0.0000    0.0000    0.0000    0.0000   42.8238
-------------------------------------------------------------------------------


  Elastic Compliance Matrix: (Units=1/GPa)

-------------------------------------------------------------------------------
  Indices      1         2         3         4         5         6    
-------------------------------------------------------------------------------
       1    0.011089 -0.003969 -0.002200  0.000000  0.000000  0.000000
       2   -0.003969  0.011089 -0.002200  0.000000  0.000000  0.000000
       3   -0.002200 -0.002200  0.007673  0.000000  0.000000  0.000000
       4    0.000000  0.000000  0.000000  0.024476  0.000000  0.000000
       5    0.000000  0.000000  0.000000  0.000000  0.024476  0.000000
       6    0.000000  0.000000  0.000000  0.000000  0.000000  0.023351
-------------------------------------------------------------------------------

  Mechanical properties :

-------------------------------------------------------------------------------
  Convention :                    Reuss         Voigt         Hill
-------------------------------------------------------------------------------
  Bulk  Modulus (GPa)     =      76.24600      77.26786      76.75693
  Shear Modulus (GPa)     =      40.56352      41.27208      40.91780
-------------------------------------------------------------------------------
  Velocity S-wave (km/s)  =       3.29043       3.31904       3.30477
  Velocity P-wave (km/s)  =       5.89805       5.94238       5.92026
-------------------------------------------------------------------------------
  Compressibility (1/GPa) =    0.01311544
-------------------------------------------------------------------------------
  Stress axis :                     x             y             z
-------------------------------------------------------------------------------
  Youngs Moduli (GPa)     =      90.17848      90.17848     130.32431
-------------------------------------------------------------------------------
  Poissons Ratio (x)      =                     0.35791       0.28666
  Poissons Ratio (y)      =       0.35791                     0.28666
  Poissons Ratio (z)      =       0.19835       0.19835
-------------------------------------------------------------------------------


  Piezoelectric Strain Matrix: (Units=C/m**2)

-------------------------------------------------------------------------------
  Indices      1         2         3         4         5         6    
-------------------------------------------------------------------------------
       x     0.00000   0.00000   0.00000   0.00000   0.00000   0.00000
       y     0.00000   0.00000   0.00000   0.00000   0.00000   0.00000
       z     0.00000   0.00000   0.00000   0.00000   0.00000   0.00000
-------------------------------------------------------------------------------


  Piezoelectric Stress Matrix: (Units=10**-11 C/N)

-------------------------------------------------------------------------------
  Indices      1         2         3         4         5         6    
-------------------------------------------------------------------------------
       x     0.00000   0.00000   0.00000   0.00000   0.00000   0.00000
       y     0.00000   0.00000   0.00000   0.00000   0.00000   0.00000
       z     0.00000   0.00000   0.00000   0.00000   0.00000   0.00000
-------------------------------------------------------------------------------


  Static dielectric constant tensor : 

-------------------------------------------------------------------------------
              x         y         z
-------------------------------------------------------------------------------
       x     8.15484   0.00000   0.00000
       y     0.00000   8.15484   0.00000
       z     0.00000   0.00000   4.33926
--------------------------------------------------------------------------------

  High frequency dielectric constant tensor : 

-------------------------------------------------------------------------------
              x         y         z
-------------------------------------------------------------------------------
       x     1.62169   0.00000   0.00000
       y     0.00000   1.62169   0.00000
       z     0.00000   0.00000   1.60298
-------------------------------------------------------------------------------

  Static refractive indices : 

-------------------------------------------------------------------------------
    1 =    2.08309      2 =    2.85567      3 =    2.85567
-------------------------------------------------------------------------------

  High frequency refractive indices : 

-------------------------------------------------------------------------------
    1 =    1.26609      2 =    1.27346      3 =    1.27346
-------------------------------------------------------------------------------


  Time to end of optimisation =       0.1483 seconds


  Peak dynamic memory used =       0.59 MB 


  Timing analysis for GULP :

--------------------------------------------------------------------------------
  Task / Subroutine                                          Time (Seconds)
--------------------------------------------------------------------------------
  Calculation of reciprocal space energy and derivatives          0.0015
  Calculation of reciprocal space energy using symmetry           0.0056
  Calculation of real space energy and derivatives                0.0070
  Calculation of real space energy using symmetry                 0.1299
  Symmetry generation of equivalent positions                     0.0005
--------------------------------------------------------------------------------
  Total CPU time                                                  0.1484
--------------------------------------------------------------------------------


  CIF file written as perov.cif                                               


  Job Finished at 13:10.03 22nd February   2017                               

