********************************************************************************
*                       GENERAL UTILITY LATTICE PROGRAM                        *
*                                 Julian Gale                                  *
*                      Nanochemistry Research Institute                        *
*                           Department of Chemistry                            *
*                    Curtin University, Western Australia                      *
********************************************************************************
* Version = 4.3.2 * Last modified =  3rd March 2015                            *
********************************************************************************
*  optimise     - perform optimisation run                                     *
*  conp         - constant pressure calculation                                *
*  property     - calculate properties for final geometry                      *
********************************************************************************

  Job Started  at 13:10.04 22nd February   2017                               

  Number of CPUs =     1


  Total number of configurations input =   1

********************************************************************************
*  Input for Configuration =   1                                               *
********************************************************************************

  Formula = K2Mn2F6                                                     

  Number of irreducible atoms/shells =       6


  Total number atoms/shells =      16

  Dimensionality = 3               :  Bulk   


  Symmetry :

  Crystal family                   :  Tetragonal  
  Crystal class  (Groth - 1921)    :  Ditetragonal Dipyramidal             

  Space group (centrosymmetric)    :  I 4/M C M       

  Patterson group                  :  I 4/m m m

  Cartesian lattice vectors (Angstroms) :

       -2.100000    2.100000    2.100000
        2.100000   -2.100000    2.100000
        2.100000    2.100000   -2.100000

  Primitive cell parameters :            Full cell parameters :

  a =   3.6373    alpha = 109.4712       a =   4.2000    alpha =  90.0000
  b =   3.6373    beta  = 109.4712       b =   4.2000    beta  =  90.0000
  c =   3.6373    gamma = 109.4712       c =   4.2000    gamma =  90.0000

  Initial volumes (Angstroms**3):

  Primitive cell =          37.044000    Full cell =          74.088000

  Temperature of configuration =  0.000     K 

  Pressure of configuration =         0.000 GPa 

  Fractional coordinates of asymmetric unit :

--------------------------------------------------------------------------------
   No.  Atomic       x           y          z         Charge      Occupancy
        Label      (Frac)      (Frac)     (Frac)        (e)         (Frac)  
--------------------------------------------------------------------------------
      1 K     c    0.000000    0.500000    0.250000     1.50000    1.000000    
      2 Mn    c    0.000000    0.000000    0.000000     1.80000    1.000000    
      3 F     c    0.240600 *  0.740600    0.000000     0.37800    1.000000    
      4 F     c    0.000000    0.000000    0.250000     0.37800    1.000000    
      5 F     s    0.240600 *  0.740600    0.000000    -1.47800    1.000000    
      6 F     s    0.000000    0.000000    0.250000    -1.47800    1.000000    
--------------------------------------------------------------------------------


  Constraints : 

--------------------------------------------------------------------------------
  Constraint no.      Unconstrained     Constrained    Coefficient    Offset
                         Variable         Variable
--------------------------------------------------------------------------------
           1              Strain 1        Strain 2       1.00000      0.0000
           2                 3 x             3 y         1.00000      0.5000
           3                 5 x             5 y         1.00000      0.5000
--------------------------------------------------------------------------------


********************************************************************************
*  General input information                                                   *
********************************************************************************

  Species output for all configurations : 

--------------------------------------------------------------------------------
  Species    Type    Atomic    Atomic    Charge       Radii (Angs)     Library
                     Number     Mass       (e)     Cova   Ionic  VDW   Symbol
--------------------------------------------------------------------------------
    K        Core       19      39.10   1.500000   1.330  0.000  2.800          
    Mn       Core       25      54.94   1.800000   1.350  0.000  2.010          
    F        Core        9      19.00   0.378000   0.710  0.000  1.300          
    F        Shell       9       0.00  -1.478000   0.710  0.000  1.300          
--------------------------------------------------------------------------------


  Lattice summation method               =    Ewald          (3-D)
                                         =    Parry          (2-D)
                                         =    Saunders et al (1-D)
  Accuracy factor for lattice sums       =   12.000


  Time limit = Infinity

  Maximum range for interatomic potentials =    100000.000000 Angstroms

  General interatomic potentials :

--------------------------------------------------------------------------------
Atom  Types   Potential         A         B         C         D     Cutoffs(Ang)
  1     2                                                            Min    Max 
--------------------------------------------------------------------------------
K    c K    c Buckingham    0.219E+04 0.192      0.00      0.00     0.000 10.000
Mn   c F    s Buckingham    0.148E+04 0.266      0.00      0.00     0.000 10.000
F    s F    s Buckingham     912.     0.271      13.8      0.00     0.000 10.000
K    c F    s Buckingham    0.352E+04 0.267      0.00      0.00     0.000 10.000
F    c F    s Spring (c-s)   28.0      0.00      0.00      0.00     0.000  0.800
--------------------------------------------------------------------------------

********************************************************************************
*  Output for configuration   1                                                *
********************************************************************************


  Components of energy : 

--------------------------------------------------------------------------------
  Interatomic potentials     =         251.00594115 eV
  Monopole - monopole (real) =         -54.99805070 eV
  Monopole - monopole (recip)=         -98.16773294 eV
  Monopole - monopole (total)=        -153.16578363 eV
--------------------------------------------------------------------------------
  Total lattice energy : 
    Primitive unit cell      =          97.84015751 eV
    Non-primitive unit cell  =         195.68031502 eV
--------------------------------------------------------------------------------
  Total lattice energy (in kJmol-1): 
    Primitive unit cell      =            9440.0796 kJ/(mole unit cells)
    Non-primitive unit cell  =           18880.1592 kJ/(mole unit cells)
--------------------------------------------------------------------------------


  Number of variables =        4

  Maximum number of calculations  =          1000
  Maximum Hessian update interval =            10
  Maximum step size               =   1.000000000
  Maximum parameter tolerance     =   0.000010000
  Maximum function  tolerance     =   0.000010000
  Maximum gradient  tolerance     =   0.001000000
  Maximum gradient  component     =   0.010000000

  Symmetry constrained optimisation

  Symmetry used for second derivatives

  Cell parameters to be optimised using strains

  Newton-Raphson optimiser to be used

  BFGS hessian update to be used

  Start of bulk optimisation :

  Cycle:      0 Energy:        97.840158  Gnorm:    215.045233  CPU:    0.010
  ** Hessian calculated **
  Cycle:      1 Energy:       -86.842212  Gnorm:      6.953115  CPU:    0.037
  ** Hessian calculated **
  Cycle:      2 Energy:       -87.415075  Gnorm:      2.783166  CPU:    0.051
  ** Hessian calculated **
  Cycle:      3 Energy:       -87.478133  Gnorm:      2.931742  CPU:    0.063
  Cycle:      4 Energy:       -87.511865  Gnorm:      1.021640  CPU:    0.073
  Cycle:      5 Energy:       -87.518009  Gnorm:      1.201871  CPU:    0.082
  Cycle:      6 Energy:       -87.519100  Gnorm:      0.049061  CPU:    0.090
  Cycle:      7 Energy:       -87.519139  Gnorm:      0.020738  CPU:    0.099
  Cycle:      8 Energy:       -87.519141  Gnorm:      0.002780  CPU:    0.106


  **** Optimisation achieved ****


  Final energy =     -87.51914075 eV
  Final Gnorm  =       0.00090722

  Components of energy : 

--------------------------------------------------------------------------------
  Interatomic potentials     =          11.72852215 eV
  Monopole - monopole (real) =         -17.68283899 eV
  Monopole - monopole (recip)=         -81.56482392 eV
  Monopole - monopole (total)=         -99.24766291 eV
--------------------------------------------------------------------------------
  Total lattice energy : 
    Primitive unit cell      =         -87.51914075 eV
    Non-primitive unit cell  =        -175.03828151 eV
--------------------------------------------------------------------------------
  Total lattice energy (in kJmol-1): 
    Primitive unit cell      =           -8444.2592 kJ/(mole unit cells)
    Non-primitive unit cell  =          -16888.5185 kJ/(mole unit cells)
--------------------------------------------------------------------------------

  Final asymmetric unit coordinates :

--------------------------------------------------------------------------------
   No.  Atomic        x           y           z         Radius
        Label       (Frac)      (Frac)      (Frac)       (Angs) 
--------------------------------------------------------------------------------
     1  K     c     0.000000    0.500000    0.250000    0.000000
     2  Mn    c     0.000000    0.000000    0.000000    0.000000
     3  F     c     0.302459    0.802459    0.000000    0.000000
     4  F     c     0.000000    0.000000    0.250000    0.000000
     5  F     s     0.302157    0.802157    0.000000    0.000000
     6  F     s     0.000000    0.000000    0.250000    0.000000
--------------------------------------------------------------------------------

  Final Cartesian lattice vectors (Angstroms) :

       -2.807305    2.807305    4.030716
        2.807305   -2.807305    4.030716
        2.807305    2.807305   -4.030716


  Final cell parameters and derivatives :

--------------------------------------------------------------------------------
       a            5.657614 Angstrom     dE/de1(xx)     0.000894 eV/strain
       b            5.657614 Angstrom     dE/de2(yy)     0.000000 eV/strain
       c            5.657614 Angstrom     dE/de3(zz)    -0.000543 eV/strain
       alpha      120.502245 Degrees      dE/de4(yz)     0.000000 eV/strain
       beta       120.502245 Degrees      dE/de5(xz)     0.000000 eV/strain
       gamma       89.132265 Degrees      dE/de6(xy)     0.000000 eV/strain
--------------------------------------------------------------------------------

  Primitive cell volume =           127.063707 Angs**3

  Density of cell =      3.947812 g/cm**3

  Non-primitive lattice parameters :

  a    =     5.614611  b   =     5.614611  c    =     8.061432
  alpha=    90.000000  beta=    90.000000  gamma=    90.000000

  Non-primitive cell volume =           254.127414 Angs**3


  Final internal derivatives :

--------------------------------------------------------------------------------
   No.  Atomic          a             b             c           Radius
        Label          (eV)          (eV)          (eV)        (eV/Angs)
--------------------------------------------------------------------------------
      1 K     c       0.000000      0.000000      0.000000      0.000000
      2 Mn    c       0.000000      0.000000      0.000000      0.000000
      3 F     c       0.002469      0.000000      0.000000      0.000000
      4 F     c       0.000000      0.000000      0.000000      0.000000
      5 F     s      -0.002446      0.000000      0.000000      0.000000
      6 F     s       0.000000      0.000000      0.000000      0.000000
--------------------------------------------------------------------------------
  Maximum abs         0.002469      0.000000      0.000000      0.000000
--------------------------------------------------------------------------------


  Born effective charge tensors : 

-------------------------------------------------------------------------------
  Atom             x           y             z
-------------------------------------------------------------------------------
   1 K     x       1.5592      0.0000      0.0000
           y       0.0000      1.5592      0.0000
           z       0.0000      0.0000      1.4967
-------------------------------------------------------------------------------
   2 Mn    x       1.4102      0.0008      0.0000
           y      -0.0008      1.4102      0.0000
           z       0.0000      0.0000      1.3670
-------------------------------------------------------------------------------
   3 F     x      -0.9733     -0.0176      0.0000
           y      -0.0176     -0.9733      0.0000
           z       0.0000      0.0000     -0.9721
-------------------------------------------------------------------------------
   4 F     x      -1.0228      0.0000      0.0000
           y       0.0000     -1.0228      0.0000
           z       0.0000      0.0000     -0.9196
-------------------------------------------------------------------------------




  Elastic Constant Matrix: (Units=GPa)

-------------------------------------------------------------------------------
  Indices      1         2         3         4         5         6    
-------------------------------------------------------------------------------
       1    141.5654   59.5321   58.3445    0.0000    0.0000    0.0000
       2     59.5321  141.5654   58.3445    0.0000    0.0000    0.0000
       3     58.3445   58.3445  183.9681    0.0000    0.0000    0.0000
       4      0.0000    0.0000    0.0000   50.1237    0.0000    0.0000
       5      0.0000    0.0000    0.0000    0.0000   50.1237    0.0000
       6      0.0000    0.0000    0.0000    0.0000    0.0000   49.6540
-------------------------------------------------------------------------------


  Elastic Compliance Matrix: (Units=1/GPa)

-------------------------------------------------------------------------------
  Indices      1         2         3         4         5         6    
-------------------------------------------------------------------------------
       1    0.009142 -0.003048 -0.001933  0.000000  0.000000  0.000000
       2   -0.003048  0.009142 -0.001933  0.000000  0.000000  0.000000
       3   -0.001933 -0.001933  0.006662  0.000000  0.000000  0.000000
       4    0.000000  0.000000  0.000000  0.019951  0.000000  0.000000
       5    0.000000  0.000000  0.000000  0.000000  0.019951  0.000000
       6    0.000000  0.000000  0.000000  0.000000  0.000000  0.020139
-------------------------------------------------------------------------------

  Mechanical properties :

-------------------------------------------------------------------------------
  Convention :                    Reuss         Voigt         Hill
-------------------------------------------------------------------------------
  Bulk  Modulus (GPa)     =      89.93549      91.06011      90.49780
  Shear Modulus (GPa)     =      48.77100      49.37215      49.07157
-------------------------------------------------------------------------------
  Velocity S-wave (km/s)  =       3.51482       3.53641       3.52563
  Velocity P-wave (km/s)  =       6.26522       6.30404       6.28466
-------------------------------------------------------------------------------
  Compressibility (1/GPa) =    0.01111908
-------------------------------------------------------------------------------
  Stress axis :                     x             y             z
-------------------------------------------------------------------------------
  Youngs Moduli (GPa)     =     109.38300     109.38300     150.11311
-------------------------------------------------------------------------------
  Poissons Ratio (x)      =                     0.33340       0.29013
  Poissons Ratio (y)      =       0.33340                     0.29013
  Poissons Ratio (z)      =       0.21141       0.21141
-------------------------------------------------------------------------------


  Piezoelectric Strain Matrix: (Units=C/m**2)

-------------------------------------------------------------------------------
  Indices      1         2         3         4         5         6    
-------------------------------------------------------------------------------
       x     0.00000   0.00000   0.00000   0.00000   0.00000   0.00000
       y     0.00000   0.00000   0.00000   0.00000   0.00000   0.00000
       z     0.00000   0.00000   0.00000   0.00000   0.00000   0.00000
-------------------------------------------------------------------------------


  Piezoelectric Stress Matrix: (Units=10**-11 C/N)

-------------------------------------------------------------------------------
  Indices      1         2         3         4         5         6    
-------------------------------------------------------------------------------
       x     0.00000   0.00000   0.00000   0.00000   0.00000   0.00000
       y     0.00000   0.00000   0.00000   0.00000   0.00000   0.00000
       z     0.00000   0.00000   0.00000   0.00000   0.00000   0.00000
-------------------------------------------------------------------------------


  Static dielectric constant tensor : 

-------------------------------------------------------------------------------
              x         y         z
-------------------------------------------------------------------------------
       x     8.42192   0.00000   0.00000
       y     0.00000   8.42192   0.00000
       z     0.00000   0.00000   4.54831
--------------------------------------------------------------------------------

  High frequency dielectric constant tensor : 

-------------------------------------------------------------------------------
              x         y         z
-------------------------------------------------------------------------------
       x     1.65511   0.00000   0.00000
       y     0.00000   1.65511   0.00000
       z     0.00000   0.00000   1.63509
-------------------------------------------------------------------------------

  Static refractive indices : 

-------------------------------------------------------------------------------
    1 =    2.13268      2 =    2.90205      3 =    2.90205
-------------------------------------------------------------------------------

  High frequency refractive indices : 

-------------------------------------------------------------------------------
    1 =    1.27871      2 =    1.28651      3 =    1.28651
-------------------------------------------------------------------------------


  Time to end of optimisation =       0.1226 seconds


  Peak dynamic memory used =       0.59 MB 


  Timing analysis for GULP :

--------------------------------------------------------------------------------
  Task / Subroutine                                          Time (Seconds)
--------------------------------------------------------------------------------
  Calculation of reciprocal space energy and derivatives          0.0014
  Calculation of reciprocal space energy using symmetry           0.0047
  Calculation of real space energy and derivatives                0.0071
  Calculation of real space energy using symmetry                 0.1049
  Symmetry generation of equivalent positions                     0.0005
--------------------------------------------------------------------------------
  Total CPU time                                                  0.1226
--------------------------------------------------------------------------------


  CIF file written as perov.cif                                               


  Job Finished at 13:10.05 22nd February   2017                               

