********************************************************************************
*                       GENERAL UTILITY LATTICE PROGRAM                        *
*                                 Julian Gale                                  *
*                      Nanochemistry Research Institute                        *
*                           Department of Chemistry                            *
*                    Curtin University, Western Australia                      *
********************************************************************************
* Version = 4.3.2 * Last modified =  3rd March 2015                            *
********************************************************************************
*  optimise     - perform optimisation run                                     *
*  conp         - constant pressure calculation                                *
*  property     - calculate properties for final geometry                      *
********************************************************************************

  Job Started  at 13:09.52 22nd February   2017                               

  Number of CPUs =     1


  Total number of configurations input =   1

********************************************************************************
*  Input for Configuration =   1                                               *
********************************************************************************

  Formula = K2Mn2F6                                                     

  Number of irreducible atoms/shells =       6


  Total number atoms/shells =      16

  Dimensionality = 3               :  Bulk   


  Symmetry :

  Crystal family                   :  Tetragonal  
  Crystal class  (Groth - 1921)    :  Ditetragonal Dipyramidal             

  Space group (centrosymmetric)    :  I 4/M C M       

  Patterson group                  :  I 4/m m m

  Cartesian lattice vectors (Angstroms) :

       -2.100000    2.100000    2.100000
        2.100000   -2.100000    2.100000
        2.100000    2.100000   -2.100000

  Primitive cell parameters :            Full cell parameters :

  a =   3.6373    alpha = 109.4712       a =   4.2000    alpha =  90.0000
  b =   3.6373    beta  = 109.4712       b =   4.2000    beta  =  90.0000
  c =   3.6373    gamma = 109.4712       c =   4.2000    gamma =  90.0000

  Initial volumes (Angstroms**3):

  Primitive cell =          37.044000    Full cell =          74.088000

  Temperature of configuration =  0.000     K 

  Pressure of configuration =         0.000 GPa 

  Fractional coordinates of asymmetric unit :

--------------------------------------------------------------------------------
   No.  Atomic       x           y          z         Charge      Occupancy
        Label      (Frac)      (Frac)     (Frac)        (e)         (Frac)  
--------------------------------------------------------------------------------
      1 K     c    0.000000    0.500000    0.250000     0.50000    1.000000    
      2 Mn    c    0.000000    0.000000    0.000000     1.90000    1.000000    
      3 F     c    0.240600 *  0.740600    0.000000     0.37800    1.000000    
      4 F     c    0.000000    0.000000    0.250000     0.37800    1.000000    
      5 F     s    0.240600 *  0.740600    0.000000    -1.17800    1.000000    
      6 F     s    0.000000    0.000000    0.250000    -1.17800    1.000000    
--------------------------------------------------------------------------------


  Constraints : 

--------------------------------------------------------------------------------
  Constraint no.      Unconstrained     Constrained    Coefficient    Offset
                         Variable         Variable
--------------------------------------------------------------------------------
           1              Strain 1        Strain 2       1.00000      0.0000
           2                 3 x             3 y         1.00000      0.5000
           3                 5 x             5 y         1.00000      0.5000
--------------------------------------------------------------------------------


********************************************************************************
*  General input information                                                   *
********************************************************************************

  Species output for all configurations : 

--------------------------------------------------------------------------------
  Species    Type    Atomic    Atomic    Charge       Radii (Angs)     Library
                     Number     Mass       (e)     Cova   Ionic  VDW   Symbol
--------------------------------------------------------------------------------
    K        Core       19      39.10   0.500000   1.330  0.000  2.800          
    Mn       Core       25      54.94   1.900000   1.350  0.000  2.010          
    F        Core        9      19.00   0.378000   0.710  0.000  1.300          
    F        Shell       9       0.00  -1.178000   0.710  0.000  1.300          
--------------------------------------------------------------------------------


  Lattice summation method               =    Ewald          (3-D)
                                         =    Parry          (2-D)
                                         =    Saunders et al (1-D)
  Accuracy factor for lattice sums       =   12.000


  Time limit = Infinity

  Maximum range for interatomic potentials =    100000.000000 Angstroms

  General interatomic potentials :

--------------------------------------------------------------------------------
Atom  Types   Potential         A         B         C         D     Cutoffs(Ang)
  1     2                                                            Min    Max 
--------------------------------------------------------------------------------
K    c K    c Buckingham    0.219E+04 0.192      0.00      0.00     0.000 10.000
Mn   c F    s Buckingham    0.148E+04 0.266      0.00      0.00     0.000 10.000
F    s F    s Buckingham     912.     0.271      13.8      0.00     0.000 10.000
K    c F    s Buckingham    0.352E+04 0.267      0.00      0.00     0.000 10.000
F    c F    s Spring (c-s)   17.8      0.00      0.00      0.00     0.000  0.800
--------------------------------------------------------------------------------

********************************************************************************
*  Output for configuration   1                                                *
********************************************************************************


  Components of energy : 

--------------------------------------------------------------------------------
  Interatomic potentials     =         251.00594115 eV
  Monopole - monopole (real) =         -37.95686560 eV
  Monopole - monopole (recip)=         -62.30464518 eV
  Monopole - monopole (total)=        -100.26151078 eV
--------------------------------------------------------------------------------
  Total lattice energy : 
    Primitive unit cell      =         150.74443037 eV
    Non-primitive unit cell  =         301.48886074 eV
--------------------------------------------------------------------------------
  Total lattice energy (in kJmol-1): 
    Primitive unit cell      =           14544.5332 kJ/(mole unit cells)
    Non-primitive unit cell  =           29089.0664 kJ/(mole unit cells)
--------------------------------------------------------------------------------


  Number of variables =        4

  Maximum number of calculations  =          1000
  Maximum Hessian update interval =            10
  Maximum step size               =   1.000000000
  Maximum parameter tolerance     =   0.000010000
  Maximum function  tolerance     =   0.000010000
  Maximum gradient  tolerance     =   0.001000000
  Maximum gradient  component     =   0.010000000

  Symmetry constrained optimisation

  Symmetry used for second derivatives

  Cell parameters to be optimised using strains

  Newton-Raphson optimiser to be used

  BFGS hessian update to be used

  Start of bulk optimisation :

  Cycle:      0 Energy:       150.744430  Gnorm:    225.311575  CPU:    0.010
  ** Hessian calculated **
  Cycle:      1 Energy:       -52.294964  Gnorm:      7.762899  CPU:    0.032
  ** Hessian calculated **
  Cycle:      2 Energy:       -53.539902  Gnorm:      3.990038  CPU:    0.044
  Cycle:      3 Energy:       -53.606195  Gnorm:      0.838574  CPU:    0.053
  Cycle:      4 Energy:       -53.613703  Gnorm:      0.246071  CPU:    0.061
  Cycle:      5 Energy:       -53.615675  Gnorm:      0.104101  CPU:    0.068
  Cycle:      6 Energy:       -53.615752  Gnorm:      0.026499  CPU:    0.076


  **** Optimisation achieved ****


  Final energy =     -53.61575307 eV
  Final Gnorm  =       0.00029608

  Components of energy : 

--------------------------------------------------------------------------------
  Interatomic potentials     =           6.85558194 eV
  Monopole - monopole (real) =          -9.57462419 eV
  Monopole - monopole (recip)=         -50.89671082 eV
  Monopole - monopole (total)=         -60.47133501 eV
--------------------------------------------------------------------------------
  Total lattice energy : 
    Primitive unit cell      =         -53.61575307 eV
    Non-primitive unit cell  =        -107.23150615 eV
--------------------------------------------------------------------------------
  Total lattice energy (in kJmol-1): 
    Primitive unit cell      =           -5173.1006 kJ/(mole unit cells)
    Non-primitive unit cell  =          -10346.2012 kJ/(mole unit cells)
--------------------------------------------------------------------------------

  Final asymmetric unit coordinates :

--------------------------------------------------------------------------------
   No.  Atomic        x           y           z         Radius
        Label       (Frac)      (Frac)      (Frac)       (Angs) 
--------------------------------------------------------------------------------
     1  K     c     0.000000    0.500000    0.250000    0.000000
     2  Mn    c     0.000000    0.000000    0.000000    0.000000
     3  F     c     0.250000    0.750000    0.000000    0.000000
     4  F     c     0.000000    0.000000    0.250000    0.000000
     5  F     s     0.250000    0.750000    0.000000    0.000000
     6  F     s     0.000000    0.000000    0.250000    0.000000
--------------------------------------------------------------------------------

  Final Cartesian lattice vectors (Angstroms) :

       -3.011832    3.011832    4.259431
        3.011832   -3.011832    4.259431
        3.011832    3.011832   -4.259431


  Final cell parameters and derivatives :

--------------------------------------------------------------------------------
       a            6.023704 Angstrom     dE/de1(xx)    -0.000545 eV/strain
       b            6.023704 Angstrom     dE/de2(yy)     0.000000 eV/strain
       c            6.023704 Angstrom     dE/de3(zz)     0.000638 eV/strain
       alpha      120.000448 Degrees      dE/de4(yz)     0.000000 eV/strain
       beta       120.000448 Degrees      dE/de5(xz)     0.000000 eV/strain
       gamma       89.999224 Degrees      dE/de6(xy)     0.000000 eV/strain
--------------------------------------------------------------------------------

  Primitive cell volume =           154.551428 Angs**3

  Density of cell =      3.245674 g/cm**3

  Non-primitive lattice parameters :

  a    =     6.023664  b   =     6.023664  c    =     8.518862
  alpha=    90.000000  beta=    90.000000  gamma=    90.000000

  Non-primitive cell volume =           309.102857 Angs**3


  Final internal derivatives :

--------------------------------------------------------------------------------
   No.  Atomic          a             b             c           Radius
        Label          (eV)          (eV)          (eV)        (eV/Angs)
--------------------------------------------------------------------------------
      1 K     c       0.000000      0.000000      0.000000      0.000000
      2 Mn    c       0.000000      0.000000      0.000000      0.000000
      3 F     c      -0.000609      0.000000      0.000000      0.000000
      4 F     c       0.000000      0.000000      0.000000      0.000000
      5 F     s       0.000573      0.000000      0.000000      0.000000
      6 F     s       0.000000      0.000000      0.000000      0.000000
--------------------------------------------------------------------------------
  Maximum abs         0.000609      0.000000      0.000000      0.000000
--------------------------------------------------------------------------------


  Born effective charge tensors : 

-------------------------------------------------------------------------------
  Atom             x           y             z
-------------------------------------------------------------------------------
   1 K     x       0.4561      0.0000      0.0000
           y       0.0000      0.4561      0.0000
           z       0.0000      0.0000      0.4561
-------------------------------------------------------------------------------
   2 Mn    x       1.5829      0.0000      0.0000
           y       0.0000      1.5829      0.0000
           z       0.0000      0.0000      1.5830
-------------------------------------------------------------------------------
   3 F     x      -0.6999      0.0607      0.0000
           y       0.0607     -0.6999      0.0000
           z       0.0000      0.0000     -0.6392
-------------------------------------------------------------------------------
   4 F     x      -0.6392      0.0000      0.0000
           y       0.0000     -0.6392      0.0000
           z       0.0000      0.0000     -0.7607
-------------------------------------------------------------------------------




  Elastic Constant Matrix: (Units=GPa)

-------------------------------------------------------------------------------
  Indices      1         2         3         4         5         6    
-------------------------------------------------------------------------------
       1     84.5424   34.8467   24.8476    0.0000    0.0000    0.0000
       2     34.8467   84.5424   24.8476    0.0000    0.0000    0.0000
       3     24.8476   24.8476   94.5325    0.0000    0.0000    0.0000
       4      0.0000    0.0000    0.0000   24.8478    0.0000    0.0000
       5      0.0000    0.0000    0.0000    0.0000   24.8478    0.0000
       6      0.0000    0.0000    0.0000    0.0000    0.0000   34.8465
-------------------------------------------------------------------------------


  Elastic Compliance Matrix: (Units=1/GPa)

-------------------------------------------------------------------------------
  Indices      1         2         3         4         5         6    
-------------------------------------------------------------------------------
       1    0.014764 -0.005359 -0.002472  0.000000  0.000000  0.000000
       2   -0.005359  0.014764 -0.002472  0.000000  0.000000  0.000000
       3   -0.002472 -0.002472  0.011878  0.000000  0.000000  0.000000
       4    0.000000  0.000000  0.000000  0.040245  0.000000  0.000000
       5    0.000000  0.000000  0.000000  0.000000  0.040245  0.000000
       6    0.000000  0.000000  0.000000  0.000000  0.000000  0.028697
-------------------------------------------------------------------------------

  Mechanical properties :

-------------------------------------------------------------------------------
  Convention :                    Reuss         Voigt         Hill
-------------------------------------------------------------------------------
  Bulk  Modulus (GPa)     =      48.07792      48.07792      48.07792
  Shear Modulus (GPa)     =      28.06913      28.84677      28.45795
-------------------------------------------------------------------------------
  Velocity S-wave (km/s)  =       2.94078       2.98123       2.96107
  Velocity P-wave (km/s)  =       5.13262       5.16365       5.14816
-------------------------------------------------------------------------------
  Compressibility (1/GPa) =    0.02079957
-------------------------------------------------------------------------------
  Stress axis :                     x             y             z
-------------------------------------------------------------------------------
  Youngs Moduli (GPa)     =      67.73361      67.73361      84.18973
-------------------------------------------------------------------------------
  Poissons Ratio (x)      =                     0.36297       0.20812
  Poissons Ratio (y)      =       0.36297                     0.20812
  Poissons Ratio (z)      =       0.16744       0.16744
-------------------------------------------------------------------------------


  Piezoelectric Strain Matrix: (Units=C/m**2)

-------------------------------------------------------------------------------
  Indices      1         2         3         4         5         6    
-------------------------------------------------------------------------------
       x     0.00000   0.00000   0.00000   0.00000   0.00000   0.00000
       y     0.00000   0.00000   0.00000   0.00000   0.00000   0.00000
       z     0.00000   0.00000   0.00000   0.00000   0.00000   0.00000
-------------------------------------------------------------------------------


  Piezoelectric Stress Matrix: (Units=10**-11 C/N)

-------------------------------------------------------------------------------
  Indices      1         2         3         4         5         6    
-------------------------------------------------------------------------------
       x     0.00000   0.00000   0.00000   0.00000   0.00000   0.00000
       y     0.00000   0.00000   0.00000   0.00000   0.00000   0.00000
       z     0.00000   0.00000   0.00000   0.00000   0.00000   0.00000
-------------------------------------------------------------------------------


  Static dielectric constant tensor : 

-------------------------------------------------------------------------------
              x         y         z
-------------------------------------------------------------------------------
       x     3.12257   0.00000   0.00000
       y     0.00000   3.12257   0.00000
       z     0.00000   0.00000   3.12282
--------------------------------------------------------------------------------

  High frequency dielectric constant tensor : 

-------------------------------------------------------------------------------
              x         y         z
-------------------------------------------------------------------------------
       x     1.52382   0.00000   0.00000
       y     0.00000   1.52382   0.00000
       z     0.00000   0.00000   1.52380
-------------------------------------------------------------------------------

  Static refractive indices : 

-------------------------------------------------------------------------------
    1 =    1.76708      2 =    1.76708      3 =    1.76715
-------------------------------------------------------------------------------

  High frequency refractive indices : 

-------------------------------------------------------------------------------
    1 =    1.23442      2 =    1.23443      3 =    1.23443
-------------------------------------------------------------------------------


  Time to end of optimisation =       0.0921 seconds


  Peak dynamic memory used =       0.59 MB 


  Timing analysis for GULP :

--------------------------------------------------------------------------------
  Task / Subroutine                                          Time (Seconds)
--------------------------------------------------------------------------------
  Calculation of reciprocal space energy and derivatives          0.0012
  Calculation of reciprocal space energy using symmetry           0.0032
  Calculation of real space energy and derivatives                0.0068
  Calculation of real space energy using symmetry                 0.0772
  Symmetry generation of equivalent positions                     0.0004
--------------------------------------------------------------------------------
  Total CPU time                                                  0.0921
--------------------------------------------------------------------------------


  CIF file written as perov.cif                                               


  Job Finished at 13:09.52 22nd February   2017                               

