********************************************************************************
*                       GENERAL UTILITY LATTICE PROGRAM                        *
*                                 Julian Gale                                  *
*                      Nanochemistry Research Institute                        *
*                           Department of Chemistry                            *
*                    Curtin University, Western Australia                      *
********************************************************************************
* Version = 4.3.2 * Last modified =  3rd March 2015                            *
********************************************************************************
*  optimise     - perform optimisation run                                     *
*  conp         - constant pressure calculation                                *
*  property     - calculate properties for final geometry                      *
********************************************************************************

  Job Started  at 13:09.53 22nd February   2017                               

  Number of CPUs =     1


  Total number of configurations input =   1

********************************************************************************
*  Input for Configuration =   1                                               *
********************************************************************************

  Formula = K2Mn2F6                                                     

  Number of irreducible atoms/shells =       6


  Total number atoms/shells =      16

  Dimensionality = 3               :  Bulk   


  Symmetry :

  Crystal family                   :  Tetragonal  
  Crystal class  (Groth - 1921)    :  Ditetragonal Dipyramidal             

  Space group (centrosymmetric)    :  I 4/M C M       

  Patterson group                  :  I 4/m m m

  Cartesian lattice vectors (Angstroms) :

       -2.100000    2.100000    2.100000
        2.100000   -2.100000    2.100000
        2.100000    2.100000   -2.100000

  Primitive cell parameters :            Full cell parameters :

  a =   3.6373    alpha = 109.4712       a =   4.2000    alpha =  90.0000
  b =   3.6373    beta  = 109.4712       b =   4.2000    beta  =  90.0000
  c =   3.6373    gamma = 109.4712       c =   4.2000    gamma =  90.0000

  Initial volumes (Angstroms**3):

  Primitive cell =          37.044000    Full cell =          74.088000

  Temperature of configuration =  0.000     K 

  Pressure of configuration =         0.000 GPa 

  Fractional coordinates of asymmetric unit :

--------------------------------------------------------------------------------
   No.  Atomic       x           y          z         Charge      Occupancy
        Label      (Frac)      (Frac)     (Frac)        (e)         (Frac)  
--------------------------------------------------------------------------------
      1 K     c    0.000000    0.500000    0.250000     0.60000    1.000000    
      2 Mn    c    0.000000    0.000000    0.000000     1.50000    1.000000    
      3 F     c    0.240600 *  0.740600    0.000000     0.37800    1.000000    
      4 F     c    0.000000    0.000000    0.250000     0.37800    1.000000    
      5 F     s    0.240600 *  0.740600    0.000000    -1.07800    1.000000    
      6 F     s    0.000000    0.000000    0.250000    -1.07800    1.000000    
--------------------------------------------------------------------------------


  Constraints : 

--------------------------------------------------------------------------------
  Constraint no.      Unconstrained     Constrained    Coefficient    Offset
                         Variable         Variable
--------------------------------------------------------------------------------
           1              Strain 1        Strain 2       1.00000      0.0000
           2                 3 x             3 y         1.00000      0.5000
           3                 5 x             5 y         1.00000      0.5000
--------------------------------------------------------------------------------


********************************************************************************
*  General input information                                                   *
********************************************************************************

  Species output for all configurations : 

--------------------------------------------------------------------------------
  Species    Type    Atomic    Atomic    Charge       Radii (Angs)     Library
                     Number     Mass       (e)     Cova   Ionic  VDW   Symbol
--------------------------------------------------------------------------------
    K        Core       19      39.10   0.600000   1.330  0.000  2.800          
    Mn       Core       25      54.94   1.500000   1.350  0.000  2.010          
    F        Core        9      19.00   0.378000   0.710  0.000  1.300          
    F        Shell       9       0.00  -1.078000   0.710  0.000  1.300          
--------------------------------------------------------------------------------


  Lattice summation method               =    Ewald          (3-D)
                                         =    Parry          (2-D)
                                         =    Saunders et al (1-D)
  Accuracy factor for lattice sums       =   12.000


  Time limit = Infinity

  Maximum range for interatomic potentials =    100000.000000 Angstroms

  General interatomic potentials :

--------------------------------------------------------------------------------
Atom  Types   Potential         A         B         C         D     Cutoffs(Ang)
  1     2                                                            Min    Max 
--------------------------------------------------------------------------------
K    c K    c Buckingham    0.219E+04 0.192      0.00      0.00     0.000 10.000
Mn   c F    s Buckingham    0.148E+04 0.266      0.00      0.00     0.000 10.000
F    s F    s Buckingham     912.     0.271      13.8      0.00     0.000 10.000
K    c F    s Buckingham    0.352E+04 0.267      0.00      0.00     0.000 10.000
F    c F    s Spring (c-s)   14.9      0.00      0.00      0.00     0.000  0.800
--------------------------------------------------------------------------------

********************************************************************************
*  Output for configuration   1                                                *
********************************************************************************


  Components of energy : 

--------------------------------------------------------------------------------
  Interatomic potentials     =         251.00594115 eV
  Monopole - monopole (real) =         -26.86512588 eV
  Monopole - monopole (recip)=         -44.11950174 eV
  Monopole - monopole (total)=         -70.98462762 eV
--------------------------------------------------------------------------------
  Total lattice energy : 
    Primitive unit cell      =         180.02131353 eV
    Non-primitive unit cell  =         360.04262706 eV
--------------------------------------------------------------------------------
  Total lattice energy (in kJmol-1): 
    Primitive unit cell      =           17369.3049 kJ/(mole unit cells)
    Non-primitive unit cell  =           34738.6098 kJ/(mole unit cells)
--------------------------------------------------------------------------------


  Number of variables =        4

  Maximum number of calculations  =          1000
  Maximum Hessian update interval =            10
  Maximum step size               =   1.000000000
  Maximum parameter tolerance     =   0.000010000
  Maximum function  tolerance     =   0.000010000
  Maximum gradient  tolerance     =   0.001000000
  Maximum gradient  component     =   0.010000000

  Symmetry constrained optimisation

  Symmetry used for second derivatives

  Cell parameters to be optimised using strains

  Newton-Raphson optimiser to be used

  BFGS hessian update to be used

  Start of bulk optimisation :

  Cycle:      0 Energy:       180.021314  Gnorm:    230.268312  CPU:    0.010
  ** Hessian calculated **
  Cycle:      1 Energy:       -34.319475  Gnorm:      8.504312  CPU:    0.031
  ** Hessian calculated **
  Cycle:      2 Energy:       -36.233386  Gnorm:      2.190470  CPU:    0.044
  Cycle:      3 Energy:       -36.307481  Gnorm:      0.752013  CPU:    0.053
  Cycle:      4 Energy:       -36.341563  Gnorm:      0.315898  CPU:    0.060
  Cycle:      5 Energy:       -36.345282  Gnorm:      0.484766  CPU:    0.068
  Cycle:      6 Energy:       -36.346422  Gnorm:      0.159936  CPU:    0.075
  Cycle:      7 Energy:       -36.346579  Gnorm:      0.191240  CPU:    0.085
  Cycle:      8 Energy:       -36.346630  Gnorm:      0.055915  CPU:    0.094
  Cycle:      9 Energy:       -36.346630  Gnorm:      0.055915  CPU:    0.105
  ** Hessian calculated **
  Cycle:     10 Energy:       -36.346630  Gnorm:      0.055915  CPU:    0.116
  ** Hessian calculated **


  **** Conditions for a minimum have not been satisfied. However ****
  **** no lower point can be found - treat results with caution  ****
  **** unless gradient norm is small (less than 0.1)             ****


  Final energy =     -36.34663005 eV
  Final Gnorm  =       0.05591482

  Components of energy : 

--------------------------------------------------------------------------------
  Interatomic potentials     =           4.41651714 eV
  Monopole - monopole (real) =          -4.09549359 eV
  Monopole - monopole (recip)=         -36.66765360 eV
  Monopole - monopole (total)=         -40.76314719 eV
--------------------------------------------------------------------------------
  Total lattice energy : 
    Primitive unit cell      =         -36.34663005 eV
    Non-primitive unit cell  =         -72.69326011 eV
--------------------------------------------------------------------------------
  Total lattice energy (in kJmol-1): 
    Primitive unit cell      =           -3506.8942 kJ/(mole unit cells)
    Non-primitive unit cell  =           -7013.7884 kJ/(mole unit cells)
--------------------------------------------------------------------------------

  Final asymmetric unit coordinates :

--------------------------------------------------------------------------------
   No.  Atomic        x           y           z         Radius
        Label       (Frac)      (Frac)      (Frac)       (Angs) 
--------------------------------------------------------------------------------
     1  K     c     0.000000    0.500000    0.250000    0.000000
     2  Mn    c     0.000000    0.000000    0.000000    0.000000
     3  F     c     0.249873    0.749873    0.000000    0.000000
     4  F     c     0.000000    0.000000    0.250000    0.000000
     5  F     s     0.249843    0.749843    0.000000    0.000000
     6  F     s     0.000000    0.000000    0.250000    0.000000
--------------------------------------------------------------------------------

  Final Cartesian lattice vectors (Angstroms) :

       -3.162094    3.162094    4.472786
        3.162094   -3.162094    4.472786
        3.162094    3.162094   -4.472786


  Final cell parameters and derivatives :

--------------------------------------------------------------------------------
       a            6.324832 Angstrom     dE/de1(xx)    -0.017533 eV/strain
       b            6.324832 Angstrom     dE/de2(yy)     0.000000 eV/strain
       c            6.324832 Angstrom     dE/de3(zz)     0.001066 eV/strain
       alpha      120.006728 Degrees      dE/de4(yz)     0.000000 eV/strain
       beta       120.006728 Degrees      dE/de5(xz)     0.000000 eV/strain
       gamma       89.988347 Degrees      dE/de6(xy)     0.000000 eV/strain
--------------------------------------------------------------------------------

  Primitive cell volume =           178.890694 Angs**3

  Density of cell =      2.804079 g/cm**3

  Non-primitive lattice parameters :

  a    =     6.324188  b   =     6.324188  c    =     8.945572
  alpha=    90.000000  beta=    90.000000  gamma=    90.000000

  Non-primitive cell volume =           357.781387 Angs**3


  Final internal derivatives :

--------------------------------------------------------------------------------
   No.  Atomic          a             b             c           Radius
        Label          (eV)          (eV)          (eV)        (eV/Angs)
--------------------------------------------------------------------------------
      1 K     c       0.000000      0.000000      0.000000      0.000000
      2 Mn    c       0.000000      0.000000      0.000000      0.000000
      3 F     c       0.149336      0.000000      0.000000      0.000000
      4 F     c       0.000000      0.000000      0.000000      0.000000
      5 F     s      -0.165571      0.000000      0.000000      0.000000
      6 F     s       0.000000      0.000000      0.000000      0.000000
--------------------------------------------------------------------------------
  Maximum abs         0.165571      0.000000      0.000000      0.000000
--------------------------------------------------------------------------------


  Born effective charge tensors : 

-------------------------------------------------------------------------------
  Atom             x           y             z
-------------------------------------------------------------------------------
   1 K     x       0.6065      0.0000      0.0000
           y       0.0000      0.6065      0.0000
           z       0.0000      0.0000      0.6065
-------------------------------------------------------------------------------
   2 Mn    x       1.2272      0.0000      0.0000
           y       0.0000      1.2272      0.0000
           z       0.0000      0.0000      1.2279
-------------------------------------------------------------------------------
   3 F     x      -0.6143      0.0093      0.0000
           y       0.0093     -0.6143      0.0000
           z       0.0000      0.0000     -0.6051
-------------------------------------------------------------------------------
   4 F     x      -0.6050      0.0000      0.0000
           y       0.0000     -0.6050      0.0000
           z       0.0000      0.0000     -0.6243
-------------------------------------------------------------------------------




  Elastic Constant Matrix: (Units=GPa)

-------------------------------------------------------------------------------
  Indices      1         2         3         4         5         6    
-------------------------------------------------------------------------------
       1     51.2364   23.3852   13.9313    0.0000    0.0000    0.0000
       2     23.3852   51.2364   13.9313    0.0000    0.0000    0.0000
       3     13.9313   13.9313   60.6005    0.0000    0.0000    0.0000
       4      0.0000    0.0000    0.0000   13.9277    0.0000    0.0000
       5      0.0000    0.0000    0.0000    0.0000   13.9277    0.0000
       6      0.0000    0.0000    0.0000    0.0000    0.0000   23.3774
-------------------------------------------------------------------------------


  Elastic Compliance Matrix: (Units=1/GPa)

-------------------------------------------------------------------------------
  Indices      1         2         3         4         5         6    
-------------------------------------------------------------------------------
       1    0.025282 -0.010623 -0.003370  0.000000  0.000000  0.000000
       2   -0.010623  0.025282 -0.003370  0.000000  0.000000  0.000000
       3   -0.003370 -0.003370  0.018051  0.000000  0.000000  0.000000
       4    0.000000  0.000000  0.000000  0.071799  0.000000  0.000000
       5    0.000000  0.000000  0.000000  0.000000  0.071799  0.000000
       6    0.000000  0.000000  0.000000  0.000000  0.000000  0.042776
-------------------------------------------------------------------------------

  Mechanical properties :

-------------------------------------------------------------------------------
  Convention :                    Reuss         Voigt         Hill
-------------------------------------------------------------------------------
  Bulk  Modulus (GPa)     =      29.50763      29.50764      29.50763
  Shear Modulus (GPa)     =      16.61060      17.70159      17.15609
-------------------------------------------------------------------------------
  Velocity S-wave (km/s)  =       2.43387       2.51253       2.47351
  Velocity P-wave (km/s)  =       4.29202       4.35203       4.32213
-------------------------------------------------------------------------------
  Compressibility (1/GPa) =    0.03388954
-------------------------------------------------------------------------------
  Stress axis :                     x             y             z
-------------------------------------------------------------------------------
  Youngs Moduli (GPa)     =      39.55350      39.55350      55.39879
-------------------------------------------------------------------------------
  Poissons Ratio (x)      =                     0.42018       0.18669
  Poissons Ratio (y)      =       0.42018                     0.18669
  Poissons Ratio (z)      =       0.13329       0.13329
-------------------------------------------------------------------------------


  Piezoelectric Strain Matrix: (Units=C/m**2)

-------------------------------------------------------------------------------
  Indices      1         2         3         4         5         6    
-------------------------------------------------------------------------------
       x     0.00000   0.00000   0.00000   0.00000   0.00000   0.00000
       y     0.00000   0.00000   0.00000   0.00000   0.00000   0.00000
       z     0.00000   0.00000   0.00000   0.00000   0.00000   0.00000
-------------------------------------------------------------------------------


  Piezoelectric Stress Matrix: (Units=10**-11 C/N)

-------------------------------------------------------------------------------
  Indices      1         2         3         4         5         6    
-------------------------------------------------------------------------------
       x     0.00000   0.00000   0.00000   0.00000   0.00000   0.00000
       y     0.00000   0.00000   0.00000   0.00000   0.00000   0.00000
       z     0.00000   0.00000   0.00000   0.00000   0.00000   0.00000
-------------------------------------------------------------------------------


  Static dielectric constant tensor : 

-------------------------------------------------------------------------------
              x         y         z
-------------------------------------------------------------------------------
       x     3.80193   0.00000   0.00000
       y     0.00000   3.80193   0.00000
       z     0.00000   0.00000   3.80565
--------------------------------------------------------------------------------

  High frequency dielectric constant tensor : 

-------------------------------------------------------------------------------
              x         y         z
-------------------------------------------------------------------------------
       x     1.46029   0.00000   0.00000
       y     0.00000   1.46029   0.00000
       z     0.00000   0.00000   1.46040
-------------------------------------------------------------------------------

  Static refractive indices : 

-------------------------------------------------------------------------------
    1 =    1.94985      2 =    1.94985      3 =    1.95081
-------------------------------------------------------------------------------

  High frequency refractive indices : 

-------------------------------------------------------------------------------
    1 =    1.20842      2 =    1.20842      3 =    1.20847
-------------------------------------------------------------------------------


  Time to end of optimisation =       0.1347 seconds


  Peak dynamic memory used =       0.59 MB 


  Timing analysis for GULP :

--------------------------------------------------------------------------------
  Task / Subroutine                                          Time (Seconds)
--------------------------------------------------------------------------------
  Calculation of reciprocal space energy and derivatives          0.0015
  Calculation of reciprocal space energy using symmetry           0.0052
  Calculation of real space energy and derivatives                0.0067
  Calculation of real space energy using symmetry                 0.1172
  Symmetry generation of equivalent positions                     0.0005
--------------------------------------------------------------------------------
  Total CPU time                                                  0.1347
--------------------------------------------------------------------------------


  CIF file written as perov.cif                                               


  Job Finished at 13:09.53 22nd February   2017                               

