********************************************************************************
*                       GENERAL UTILITY LATTICE PROGRAM                        *
*                                 Julian Gale                                  *
*                      Nanochemistry Research Institute                        *
*                           Department of Chemistry                            *
*                    Curtin University, Western Australia                      *
********************************************************************************
* Version = 4.3.2 * Last modified =  3rd March 2015                            *
********************************************************************************
*  optimise     - perform optimisation run                                     *
*  conp         - constant pressure calculation                                *
*  property     - calculate properties for final geometry                      *
********************************************************************************

  Job Started  at 13:09.55 22nd February   2017                               

  Number of CPUs =     1


  Total number of configurations input =   1

********************************************************************************
*  Input for Configuration =   1                                               *
********************************************************************************

  Formula = K2Mn2F6                                                     

  Number of irreducible atoms/shells =       6


  Total number atoms/shells =      16

  Dimensionality = 3               :  Bulk   


  Symmetry :

  Crystal family                   :  Tetragonal  
  Crystal class  (Groth - 1921)    :  Ditetragonal Dipyramidal             

  Space group (centrosymmetric)    :  I 4/M C M       

  Patterson group                  :  I 4/m m m

  Cartesian lattice vectors (Angstroms) :

       -2.100000    2.100000    2.100000
        2.100000   -2.100000    2.100000
        2.100000    2.100000   -2.100000

  Primitive cell parameters :            Full cell parameters :

  a =   3.6373    alpha = 109.4712       a =   4.2000    alpha =  90.0000
  b =   3.6373    beta  = 109.4712       b =   4.2000    beta  =  90.0000
  c =   3.6373    gamma = 109.4712       c =   4.2000    gamma =  90.0000

  Initial volumes (Angstroms**3):

  Primitive cell =          37.044000    Full cell =          74.088000

  Temperature of configuration =  0.000     K 

  Pressure of configuration =         0.000 GPa 

  Fractional coordinates of asymmetric unit :

--------------------------------------------------------------------------------
   No.  Atomic       x           y          z         Charge      Occupancy
        Label      (Frac)      (Frac)     (Frac)        (e)         (Frac)  
--------------------------------------------------------------------------------
      1 K     c    0.000000    0.500000    0.250000     0.70000    1.000000    
      2 Mn    c    0.000000    0.000000    0.000000     2.20000    1.000000    
      3 F     c    0.240600 *  0.740600    0.000000     0.37800    1.000000    
      4 F     c    0.000000    0.000000    0.250000     0.37800    1.000000    
      5 F     s    0.240600 *  0.740600    0.000000    -1.34467    1.000000    
      6 F     s    0.000000    0.000000    0.250000    -1.34467    1.000000    
--------------------------------------------------------------------------------


  Constraints : 

--------------------------------------------------------------------------------
  Constraint no.      Unconstrained     Constrained    Coefficient    Offset
                         Variable         Variable
--------------------------------------------------------------------------------
           1              Strain 1        Strain 2       1.00000      0.0000
           2                 3 x             3 y         1.00000      0.5000
           3                 5 x             5 y         1.00000      0.5000
--------------------------------------------------------------------------------


********************************************************************************
*  General input information                                                   *
********************************************************************************

  Species output for all configurations : 

--------------------------------------------------------------------------------
  Species    Type    Atomic    Atomic    Charge       Radii (Angs)     Library
                     Number     Mass       (e)     Cova   Ionic  VDW   Symbol
--------------------------------------------------------------------------------
    K        Core       19      39.10   0.700000   1.330  0.000  2.800          
    Mn       Core       25      54.94   2.200000   1.350  0.000  2.010          
    F        Core        9      19.00   0.378000   0.710  0.000  1.300          
    F        Shell       9       0.00  -1.344667   0.710  0.000  1.300          
--------------------------------------------------------------------------------


  Lattice summation method               =    Ewald          (3-D)
                                         =    Parry          (2-D)
                                         =    Saunders et al (1-D)
  Accuracy factor for lattice sums       =   12.000


  Time limit = Infinity

  Maximum range for interatomic potentials =    100000.000000 Angstroms

  General interatomic potentials :

--------------------------------------------------------------------------------
Atom  Types   Potential         A         B         C         D     Cutoffs(Ang)
  1     2                                                            Min    Max 
--------------------------------------------------------------------------------
K    c K    c Buckingham    0.219E+04 0.192      0.00      0.00     0.000 10.000
Mn   c F    s Buckingham    0.148E+04 0.266      0.00      0.00     0.000 10.000
F    s F    s Buckingham     912.     0.271      13.8      0.00     0.000 10.000
K    c F    s Buckingham    0.352E+04 0.267      0.00      0.00     0.000 10.000
F    c F    s Spring (c-s)   23.2      0.00      0.00      0.00     0.000  0.800
--------------------------------------------------------------------------------

********************************************************************************
*  Output for configuration   1                                                *
********************************************************************************


  Components of energy : 

--------------------------------------------------------------------------------
  Interatomic potentials     =         251.00594115 eV
  Monopole - monopole (real) =         -53.61829107 eV
  Monopole - monopole (recip)=         -87.81956193 eV
  Monopole - monopole (total)=        -141.43785301 eV
--------------------------------------------------------------------------------
  Total lattice energy : 
    Primitive unit cell      =         109.56808814 eV
    Non-primitive unit cell  =         219.13617628 eV
--------------------------------------------------------------------------------
  Total lattice energy (in kJmol-1): 
    Primitive unit cell      =           10571.6456 kJ/(mole unit cells)
    Non-primitive unit cell  =           21143.2912 kJ/(mole unit cells)
--------------------------------------------------------------------------------


  Number of variables =        4

  Maximum number of calculations  =          1000
  Maximum Hessian update interval =            10
  Maximum step size               =   1.000000000
  Maximum parameter tolerance     =   0.000010000
  Maximum function  tolerance     =   0.000010000
  Maximum gradient  tolerance     =   0.001000000
  Maximum gradient  component     =   0.010000000

  Symmetry constrained optimisation

  Symmetry used for second derivatives

  Cell parameters to be optimised using strains

  Newton-Raphson optimiser to be used

  BFGS hessian update to be used

  Start of bulk optimisation :

  Cycle:      0 Energy:       109.568088  Gnorm:    218.030677  CPU:    0.011
  ** Hessian calculated **
  Cycle:      1 Energy:       -78.387383  Gnorm:      5.843763  CPU:    0.034
  ** Hessian calculated **
  Cycle:      2 Energy:       -79.066106  Gnorm:      1.949885  CPU:    0.046
  Cycle:      3 Energy:       -79.092247  Gnorm:      0.699491  CPU:    0.056
  Cycle:      4 Energy:       -79.095058  Gnorm:      0.352286  CPU:    0.063
  Cycle:      5 Energy:       -79.095444  Gnorm:      0.065889  CPU:    0.071
  Cycle:      6 Energy:       -79.095450  Gnorm:      0.002330  CPU:    0.078


  **** Optimisation achieved ****


  Final energy =     -79.09545054 eV
  Final Gnorm  =       0.00067034

  Components of energy : 

--------------------------------------------------------------------------------
  Interatomic potentials     =          10.65421124 eV
  Monopole - monopole (real) =         -17.67952192 eV
  Monopole - monopole (recip)=         -72.07013986 eV
  Monopole - monopole (total)=         -89.74966179 eV
--------------------------------------------------------------------------------
  Total lattice energy : 
    Primitive unit cell      =         -79.09545054 eV
    Non-primitive unit cell  =        -158.19090108 eV
--------------------------------------------------------------------------------
  Total lattice energy (in kJmol-1): 
    Primitive unit cell      =           -7631.5019 kJ/(mole unit cells)
    Non-primitive unit cell  =          -15263.0038 kJ/(mole unit cells)
--------------------------------------------------------------------------------

  Final asymmetric unit coordinates :

--------------------------------------------------------------------------------
   No.  Atomic        x           y           z         Radius
        Label       (Frac)      (Frac)      (Frac)       (Angs) 
--------------------------------------------------------------------------------
     1  K     c     0.000000    0.500000    0.250000    0.000000
     2  Mn    c     0.000000    0.000000    0.000000    0.000000
     3  F     c     0.250001    0.750001    0.000000    0.000000
     4  F     c     0.000000    0.000000    0.250000    0.000000
     5  F     s     0.250000    0.750000    0.000000    0.000000
     6  F     s     0.000000    0.000000    0.250000    0.000000
--------------------------------------------------------------------------------

  Final Cartesian lattice vectors (Angstroms) :

       -2.861625    2.861625    4.046960
        2.861625   -2.861625    4.046960
        2.861625    2.861625   -4.046960


  Final cell parameters and derivatives :

--------------------------------------------------------------------------------
       a            5.723257 Angstrom     dE/de1(xx)    -0.000136 eV/strain
       b            5.723257 Angstrom     dE/de2(yy)     0.000000 eV/strain
       c            5.723257 Angstrom     dE/de3(zz)     0.000169 eV/strain
       alpha      120.000096 Degrees      dE/de4(yz)     0.000000 eV/strain
       beta       120.000096 Degrees      dE/de5(xz)     0.000000 eV/strain
       gamma       89.999833 Degrees      dE/de6(xy)     0.000000 eV/strain
--------------------------------------------------------------------------------

  Primitive cell volume =           132.560520 Angs**3

  Density of cell =      3.784110 g/cm**3

  Non-primitive lattice parameters :

  a    =     5.723249  b   =     5.723249  c    =     8.093920
  alpha=    90.000000  beta=    90.000000  gamma=    90.000000

  Non-primitive cell volume =           265.121039 Angs**3


  Final internal derivatives :

--------------------------------------------------------------------------------
   No.  Atomic          a             b             c           Radius
        Label          (eV)          (eV)          (eV)        (eV/Angs)
--------------------------------------------------------------------------------
      1 K     c       0.000000      0.000000      0.000000      0.000000
      2 Mn    c       0.000000      0.000000      0.000000      0.000000
      3 F     c       0.001932      0.000000      0.000000      0.000000
      4 F     c       0.000000      0.000000      0.000000      0.000000
      5 F     s      -0.001847      0.000000      0.000000      0.000000
      6 F     s       0.000000      0.000000      0.000000      0.000000
--------------------------------------------------------------------------------
  Maximum abs         0.001932      0.000000      0.000000      0.000000
--------------------------------------------------------------------------------


  Born effective charge tensors : 

-------------------------------------------------------------------------------
  Atom             x           y             z
-------------------------------------------------------------------------------
   1 K     x       0.6421      0.0000      0.0000
           y       0.0000      0.6421      0.0000
           z       0.0000      0.0000      0.6421
-------------------------------------------------------------------------------
   2 Mn    x       1.8280      0.0000      0.0000
           y       0.0000      1.8280      0.0000
           z       0.0000      0.0000      1.8280
-------------------------------------------------------------------------------
   3 F     x      -0.8527      0.0880      0.0000
           y       0.0880     -0.8527      0.0000
           z       0.0000      0.0000     -0.7647
-------------------------------------------------------------------------------
   4 F     x      -0.7647      0.0000      0.0000
           y       0.0000     -0.7647      0.0000
           z       0.0000      0.0000     -0.9407
-------------------------------------------------------------------------------




  Elastic Constant Matrix: (Units=GPa)

-------------------------------------------------------------------------------
  Indices      1         2         3         4         5         6    
-------------------------------------------------------------------------------
       1    141.2074   49.3047   45.9513    0.0000    0.0000    0.0000
       2     49.3047  141.2074   45.9513    0.0000    0.0000    0.0000
       3     45.9513   45.9513  144.5580    0.0000    0.0000    0.0000
       4      0.0000    0.0000    0.0000   45.9513    0.0000    0.0000
       5      0.0000    0.0000    0.0000    0.0000   45.9513    0.0000
       6      0.0000    0.0000    0.0000    0.0000    0.0000   49.3046
-------------------------------------------------------------------------------


  Elastic Compliance Matrix: (Units=1/GPa)

-------------------------------------------------------------------------------
  Indices      1         2         3         4         5         6    
-------------------------------------------------------------------------------
       1    0.008540 -0.002341 -0.001971  0.000000  0.000000  0.000000
       2   -0.002341  0.008540 -0.001971  0.000000  0.000000  0.000000
       3   -0.001971 -0.001971  0.008171  0.000000  0.000000  0.000000
       4    0.000000  0.000000  0.000000  0.021762  0.000000  0.000000
       5    0.000000  0.000000  0.000000  0.000000  0.021762  0.000000
       6    0.000000  0.000000  0.000000  0.000000  0.000000  0.020282
-------------------------------------------------------------------------------

  Mechanical properties :

-------------------------------------------------------------------------------
  Convention :                    Reuss         Voigt         Hill
-------------------------------------------------------------------------------
  Bulk  Modulus (GPa)     =      78.82079      78.82079      78.82079
  Shear Modulus (GPa)     =      47.23623      47.29248      47.26435
-------------------------------------------------------------------------------
  Velocity S-wave (km/s)  =       3.53310       3.53520       3.53415
  Velocity P-wave (km/s)  =       6.12153       6.12315       6.12234
-------------------------------------------------------------------------------
  Compressibility (1/GPa) =    0.01268701
-------------------------------------------------------------------------------
  Stress axis :                     x             y             z
-------------------------------------------------------------------------------
  Youngs Moduli (GPa)     =     117.09082     117.09082     122.39121
-------------------------------------------------------------------------------
  Poissons Ratio (x)      =                     0.27407       0.24120
  Poissons Ratio (y)      =       0.27407                     0.24120
  Poissons Ratio (z)      =       0.23075       0.23075
-------------------------------------------------------------------------------


  Piezoelectric Strain Matrix: (Units=C/m**2)

-------------------------------------------------------------------------------
  Indices      1         2         3         4         5         6    
-------------------------------------------------------------------------------
       x     0.00000   0.00000   0.00000   0.00000   0.00000   0.00000
       y     0.00000   0.00000   0.00000   0.00000   0.00000   0.00000
       z     0.00000   0.00000   0.00000   0.00000   0.00000   0.00000
-------------------------------------------------------------------------------


  Piezoelectric Stress Matrix: (Units=10**-11 C/N)

-------------------------------------------------------------------------------
  Indices      1         2         3         4         5         6    
-------------------------------------------------------------------------------
       x     0.00000   0.00000   0.00000   0.00000   0.00000   0.00000
       y     0.00000   0.00000   0.00000   0.00000   0.00000   0.00000
       z     0.00000   0.00000   0.00000   0.00000   0.00000   0.00000
-------------------------------------------------------------------------------


  Static dielectric constant tensor : 

-------------------------------------------------------------------------------
              x         y         z
-------------------------------------------------------------------------------
       x     3.46559   0.00000   0.00000
       y     0.00000   3.46559   0.00000
       z     0.00000   0.00000   3.46565
--------------------------------------------------------------------------------

  High frequency dielectric constant tensor : 

-------------------------------------------------------------------------------
              x         y         z
-------------------------------------------------------------------------------
       x     1.60881   0.00000   0.00000
       y     0.00000   1.60881   0.00000
       z     0.00000   0.00000   1.60881
-------------------------------------------------------------------------------

  Static refractive indices : 

-------------------------------------------------------------------------------
    1 =    1.86161      2 =    1.86161      3 =    1.86163
-------------------------------------------------------------------------------

  High frequency refractive indices : 

-------------------------------------------------------------------------------
    1 =    1.26839      2 =    1.26839      3 =    1.26839
-------------------------------------------------------------------------------


  Time to end of optimisation =       0.0951 seconds


  Peak dynamic memory used =       0.59 MB 


  Timing analysis for GULP :

--------------------------------------------------------------------------------
  Task / Subroutine                                          Time (Seconds)
--------------------------------------------------------------------------------
  Calculation of reciprocal space energy and derivatives          0.0013
  Calculation of reciprocal space energy using symmetry           0.0033
  Calculation of real space energy and derivatives                0.0072
  Calculation of real space energy using symmetry                 0.0783
  Symmetry generation of equivalent positions                     0.0006
--------------------------------------------------------------------------------
  Total CPU time                                                  0.0952
--------------------------------------------------------------------------------


  CIF file written as perov.cif                                               


  Job Finished at 13:09.55 22nd February   2017                               

