********************************************************************************
*                       GENERAL UTILITY LATTICE PROGRAM                        *
*                                 Julian Gale                                  *
*                      Nanochemistry Research Institute                        *
*                           Department of Chemistry                            *
*                    Curtin University, Western Australia                      *
********************************************************************************
* Version = 4.3.2 * Last modified =  3rd March 2015                            *
********************************************************************************
*  optimise     - perform optimisation run                                     *
*  conp         - constant pressure calculation                                *
*  property     - calculate properties for final geometry                      *
********************************************************************************

  Job Started  at 13:10.04 22nd February   2017                               

  Number of CPUs =     1


  Total number of configurations input =   1

********************************************************************************
*  Input for Configuration =   1                                               *
********************************************************************************

  Formula = K2Mn2F6                                                     

  Number of irreducible atoms/shells =       6


  Total number atoms/shells =      16

  Dimensionality = 3               :  Bulk   


  Symmetry :

  Crystal family                   :  Tetragonal  
  Crystal class  (Groth - 1921)    :  Ditetragonal Dipyramidal             

  Space group (centrosymmetric)    :  I 4/M C M       

  Patterson group                  :  I 4/m m m

  Cartesian lattice vectors (Angstroms) :

       -2.100000    2.100000    2.100000
        2.100000   -2.100000    2.100000
        2.100000    2.100000   -2.100000

  Primitive cell parameters :            Full cell parameters :

  a =   3.6373    alpha = 109.4712       a =   4.2000    alpha =  90.0000
  b =   3.6373    beta  = 109.4712       b =   4.2000    beta  =  90.0000
  c =   3.6373    gamma = 109.4712       c =   4.2000    gamma =  90.0000

  Initial volumes (Angstroms**3):

  Primitive cell =          37.044000    Full cell =          74.088000

  Temperature of configuration =  0.000     K 

  Pressure of configuration =         0.000 GPa 

  Fractional coordinates of asymmetric unit :

--------------------------------------------------------------------------------
   No.  Atomic       x           y          z         Charge      Occupancy
        Label      (Frac)      (Frac)     (Frac)        (e)         (Frac)  
--------------------------------------------------------------------------------
      1 K     c    0.000000    0.500000    0.250000     1.40000    1.000000    
      2 Mn    c    0.000000    0.000000    0.000000     2.10000    1.000000    
      3 F     c    0.240600 *  0.740600    0.000000     0.37800    1.000000    
      4 F     c    0.000000    0.000000    0.250000     0.37800    1.000000    
      5 F     s    0.240600 *  0.740600    0.000000    -1.54467    1.000000    
      6 F     s    0.000000    0.000000    0.250000    -1.54467    1.000000    
--------------------------------------------------------------------------------


  Constraints : 

--------------------------------------------------------------------------------
  Constraint no.      Unconstrained     Constrained    Coefficient    Offset
                         Variable         Variable
--------------------------------------------------------------------------------
           1              Strain 1        Strain 2       1.00000      0.0000
           2                 3 x             3 y         1.00000      0.5000
           3                 5 x             5 y         1.00000      0.5000
--------------------------------------------------------------------------------


********************************************************************************
*  General input information                                                   *
********************************************************************************

  Species output for all configurations : 

--------------------------------------------------------------------------------
  Species    Type    Atomic    Atomic    Charge       Radii (Angs)     Library
                     Number     Mass       (e)     Cova   Ionic  VDW   Symbol
--------------------------------------------------------------------------------
    K        Core       19      39.10   1.400000   1.330  0.000  2.800          
    Mn       Core       25      54.94   2.100000   1.350  0.000  2.010          
    F        Core        9      19.00   0.378000   0.710  0.000  1.300          
    F        Shell       9       0.00  -1.544667   0.710  0.000  1.300          
--------------------------------------------------------------------------------


  Lattice summation method               =    Ewald          (3-D)
                                         =    Parry          (2-D)
                                         =    Saunders et al (1-D)
  Accuracy factor for lattice sums       =   12.000


  Time limit = Infinity

  Maximum range for interatomic potentials =    100000.000000 Angstroms

  General interatomic potentials :

--------------------------------------------------------------------------------
Atom  Types   Potential         A         B         C         D     Cutoffs(Ang)
  1     2                                                            Min    Max 
--------------------------------------------------------------------------------
K    c K    c Buckingham    0.219E+04 0.192      0.00      0.00     0.000 10.000
Mn   c F    s Buckingham    0.148E+04 0.266      0.00      0.00     0.000 10.000
F    s F    s Buckingham     912.     0.271      13.8      0.00     0.000 10.000
K    c F    s Buckingham    0.352E+04 0.267      0.00      0.00     0.000 10.000
F    c F    s Spring (c-s)   30.6      0.00      0.00      0.00     0.000  0.800
--------------------------------------------------------------------------------

********************************************************************************
*  Output for configuration   1                                                *
********************************************************************************


  Components of energy : 

--------------------------------------------------------------------------------
  Interatomic potentials     =         251.00594115 eV
  Monopole - monopole (real) =         -65.90643429 eV
  Monopole - monopole (recip)=        -112.90784151 eV
  Monopole - monopole (total)=        -178.81427580 eV
--------------------------------------------------------------------------------
  Total lattice energy : 
    Primitive unit cell      =          72.19166534 eV
    Non-primitive unit cell  =         144.38333068 eV
--------------------------------------------------------------------------------
  Total lattice energy (in kJmol-1): 
    Primitive unit cell      =            6965.3922 kJ/(mole unit cells)
    Non-primitive unit cell  =           13930.7843 kJ/(mole unit cells)
--------------------------------------------------------------------------------


  Number of variables =        4

  Maximum number of calculations  =          1000
  Maximum Hessian update interval =            10
  Maximum step size               =   1.000000000
  Maximum parameter tolerance     =   0.000010000
  Maximum function  tolerance     =   0.000010000
  Maximum gradient  tolerance     =   0.001000000
  Maximum gradient  component     =   0.010000000

  Symmetry constrained optimisation

  Symmetry used for second derivatives

  Cell parameters to be optimised using strains

  Newton-Raphson optimiser to be used

  BFGS hessian update to be used

  Start of bulk optimisation :

  Cycle:      0 Energy:        72.191665  Gnorm:    210.712446  CPU:    0.010
  ** Hessian calculated **
  Cycle:      1 Energy:      -103.360434  Gnorm:      5.486044  CPU:    0.032
  ** Hessian calculated **
  Cycle:      2 Energy:      -103.713300  Gnorm:      2.341726  CPU:    0.044
  Cycle:      3 Energy:      -103.722931  Gnorm:      0.869318  CPU:    0.052
  Cycle:      4 Energy:      -103.724278  Gnorm:      0.058061  CPU:    0.060
  Cycle:      5 Energy:      -103.725186  Gnorm:      0.133189  CPU:    0.069
  Cycle:      6 Energy:      -103.725219  Gnorm:      0.017825  CPU:    0.077
  Cycle:      7 Energy:      -103.725228  Gnorm:      0.007156  CPU:    0.085
  Cycle:      8 Energy:      -103.725228  Gnorm:      0.003143  CPU:    0.093


  **** Optimisation achieved ****


  Final energy =    -103.72522821 eV
  Final Gnorm  =       0.00013814

  Components of energy : 

--------------------------------------------------------------------------------
  Interatomic potentials     =          14.49258520 eV
  Monopole - monopole (real) =         -24.11640665 eV
  Monopole - monopole (recip)=         -94.10140677 eV
  Monopole - monopole (total)=        -118.21781342 eV
--------------------------------------------------------------------------------
  Total lattice energy : 
    Primitive unit cell      =        -103.72522821 eV
    Non-primitive unit cell  =        -207.45045643 eV
--------------------------------------------------------------------------------
  Total lattice energy (in kJmol-1): 
    Primitive unit cell      =          -10007.8989 kJ/(mole unit cells)
    Non-primitive unit cell  =          -20015.7979 kJ/(mole unit cells)
--------------------------------------------------------------------------------

  Final asymmetric unit coordinates :

--------------------------------------------------------------------------------
   No.  Atomic        x           y           z         Radius
        Label       (Frac)      (Frac)      (Frac)       (Angs) 
--------------------------------------------------------------------------------
     1  K     c     0.000000    0.500000    0.250000    0.000000
     2  Mn    c     0.000000    0.000000    0.000000    0.000000
     3  F     c     0.243153    0.743153    0.000000    0.000000
     4  F     c     0.000000    0.000000    0.250000    0.000000
     5  F     s     0.243233    0.743233    0.000000    0.000000
     6  F     s     0.000000    0.000000    0.250000    0.000000
--------------------------------------------------------------------------------

  Final Cartesian lattice vectors (Angstroms) :

       -2.756824    2.756824    3.900167
        2.756824   -2.756824    3.900167
        2.756824    2.756824   -3.900167


  Final cell parameters and derivatives :

--------------------------------------------------------------------------------
       a            5.514658 Angstrom     dE/de1(xx)    -0.000246 eV/strain
       b            5.514658 Angstrom     dE/de2(yy)     0.000000 eV/strain
       c            5.514658 Angstrom     dE/de3(zz)     0.000119 eV/strain
       alpha      120.012118 Degrees      dE/de4(yz)     0.000000 eV/strain
       beta       120.012118 Degrees      dE/de5(xz)     0.000000 eV/strain
       gamma       89.979012 Degrees      dE/de6(xy)     0.000000 eV/strain
--------------------------------------------------------------------------------

  Primitive cell volume =           118.566302 Angs**3

  Density of cell =      4.230744 g/cm**3

  Non-primitive lattice parameters :

  a    =     5.513648  b   =     5.513648  c    =     7.800333
  alpha=    90.000000  beta=    90.000000  gamma=    90.000000

  Non-primitive cell volume =           237.132603 Angs**3


  Final internal derivatives :

--------------------------------------------------------------------------------
   No.  Atomic          a             b             c           Radius
        Label          (eV)          (eV)          (eV)        (eV/Angs)
--------------------------------------------------------------------------------
      1 K     c       0.000000      0.000000      0.000000      0.000000
      2 Mn    c       0.000000      0.000000      0.000000      0.000000
      3 F     c      -0.000382      0.000000      0.000000      0.000000
      4 F     c       0.000000      0.000000      0.000000      0.000000
      5 F     s       0.000291      0.000000      0.000000      0.000000
      6 F     s       0.000000      0.000000      0.000000      0.000000
--------------------------------------------------------------------------------
  Maximum abs         0.000382      0.000000      0.000000      0.000000
--------------------------------------------------------------------------------


  Born effective charge tensors : 

-------------------------------------------------------------------------------
  Atom             x           y             z
-------------------------------------------------------------------------------
   1 K     x       1.4585      0.0000      0.0000
           y       0.0000      1.4585      0.0000
           z       0.0000      0.0000      1.4572
-------------------------------------------------------------------------------
   2 Mn    x       1.6107     -0.0006      0.0000
           y       0.0006      1.6107      0.0000
           z       0.0000      0.0000      1.6104
-------------------------------------------------------------------------------
   3 F     x      -1.0226     -0.0008      0.0000
           y      -0.0008     -1.0226      0.0000
           z       0.0000      0.0000     -1.0230
-------------------------------------------------------------------------------
   4 F     x      -1.0239      0.0000      0.0000
           y       0.0000     -1.0239      0.0000
           z       0.0000      0.0000     -1.0216
-------------------------------------------------------------------------------




  Elastic Constant Matrix: (Units=GPa)

-------------------------------------------------------------------------------
  Indices      1         2         3         4         5         6    
-------------------------------------------------------------------------------
       1    197.8103   66.0720   70.1024    0.0000    0.0000    0.0000
       2     66.0720  197.8103   70.1024    0.0000    0.0000    0.0000
       3     70.1024   70.1024  196.5634    0.0000    0.0000    0.0000
       4      0.0000    0.0000    0.0000   43.4359    0.0000    0.0000
       5      0.0000    0.0000    0.0000    0.0000   43.4359    0.0000
       6      0.0000    0.0000    0.0000    0.0000    0.0000   68.0788
-------------------------------------------------------------------------------


  Elastic Compliance Matrix: (Units=1/GPa)

-------------------------------------------------------------------------------
  Indices      1         2         3         4         5         6    
-------------------------------------------------------------------------------
       1    0.006133 -0.001458 -0.001667  0.000000  0.000000  0.000000
       2   -0.001458  0.006133 -0.001667  0.000000  0.000000  0.000000
       3   -0.001667 -0.001667  0.006277  0.000000  0.000000  0.000000
       4    0.000000  0.000000  0.000000  0.023022  0.000000  0.000000
       5    0.000000  0.000000  0.000000  0.000000  0.023022  0.000000
       6    0.000000  0.000000  0.000000  0.000000  0.000000  0.014689
-------------------------------------------------------------------------------

  Mechanical properties :

-------------------------------------------------------------------------------
  Convention :                    Reuss         Voigt         Hill
-------------------------------------------------------------------------------
  Bulk  Modulus (GPa)     =     111.63294     111.63752     111.63523
  Shear Modulus (GPa)     =      54.43774      56.71726      55.57750
-------------------------------------------------------------------------------
  Velocity S-wave (km/s)  =       3.58709       3.66142       3.62444
  Velocity P-wave (km/s)  =       6.59866       6.65296       6.62587
-------------------------------------------------------------------------------
  Compressibility (1/GPa) =    0.00895793
-------------------------------------------------------------------------------
  Stress axis :                     x             y             z
-------------------------------------------------------------------------------
  Youngs Moduli (GPa)     =     163.04786     163.04786     159.31683
-------------------------------------------------------------------------------
  Poissons Ratio (x)      =                     0.23766       0.26566
  Poissons Ratio (y)      =       0.23766                     0.26566
  Poissons Ratio (z)      =       0.27188       0.27188
-------------------------------------------------------------------------------


  Piezoelectric Strain Matrix: (Units=C/m**2)

-------------------------------------------------------------------------------
  Indices      1         2         3         4         5         6    
-------------------------------------------------------------------------------
       x     0.00000   0.00000   0.00000   0.00000   0.00000   0.00000
       y     0.00000   0.00000   0.00000   0.00000   0.00000   0.00000
       z     0.00000   0.00000   0.00000   0.00000   0.00000   0.00000
-------------------------------------------------------------------------------


  Piezoelectric Stress Matrix: (Units=10**-11 C/N)

-------------------------------------------------------------------------------
  Indices      1         2         3         4         5         6    
-------------------------------------------------------------------------------
       x     0.00000   0.00000   0.00000   0.00000   0.00000   0.00000
       y     0.00000   0.00000   0.00000   0.00000   0.00000   0.00000
       z     0.00000   0.00000   0.00000   0.00000   0.00000   0.00000
-------------------------------------------------------------------------------


  Static dielectric constant tensor : 

-------------------------------------------------------------------------------
              x         y         z
-------------------------------------------------------------------------------
       x     6.55175   0.00000   0.00000
       y     0.00000   6.55175   0.00000
       z     0.00000   0.00000   6.47274
--------------------------------------------------------------------------------

  High frequency dielectric constant tensor : 

-------------------------------------------------------------------------------
              x         y         z
-------------------------------------------------------------------------------
       x     1.68848   0.00000   0.00000
       y     0.00000   1.68848   0.00000
       z     0.00000   0.00000   1.68817
-------------------------------------------------------------------------------

  Static refractive indices : 

-------------------------------------------------------------------------------
    1 =    2.54416      2 =    2.55964      3 =    2.55964
-------------------------------------------------------------------------------

  High frequency refractive indices : 

-------------------------------------------------------------------------------
    1 =    1.29930      2 =    1.29942      3 =    1.29942
-------------------------------------------------------------------------------


  Time to end of optimisation =       0.1096 seconds


  Peak dynamic memory used =       0.59 MB 


  Timing analysis for GULP :

--------------------------------------------------------------------------------
  Task / Subroutine                                          Time (Seconds)
--------------------------------------------------------------------------------
  Calculation of reciprocal space energy and derivatives          0.0013
  Calculation of reciprocal space energy using symmetry           0.0038
  Calculation of real space energy and derivatives                0.0071
  Calculation of real space energy using symmetry                 0.0932
  Symmetry generation of equivalent positions                     0.0005
--------------------------------------------------------------------------------
  Total CPU time                                                  0.1096
--------------------------------------------------------------------------------


  CIF file written as perov.cif                                               


  Job Finished at 13:10.04 22nd February   2017                               

