********************************************************************************
*                       GENERAL UTILITY LATTICE PROGRAM                        *
*                                 Julian Gale                                  *
*                      Nanochemistry Research Institute                        *
*                           Department of Chemistry                            *
*                    Curtin University, Western Australia                      *
********************************************************************************
* Version = 4.3.2 * Last modified =  3rd March 2015                            *
********************************************************************************
*  optimise     - perform optimisation run                                     *
*  conp         - constant pressure calculation                                *
*  property     - calculate properties for final geometry                      *
********************************************************************************

  Job Started  at 13:10.01 22nd February   2017                               

  Number of CPUs =     1


  Total number of configurations input =   1

********************************************************************************
*  Input for Configuration =   1                                               *
********************************************************************************

  Formula = K2Mn2F6                                                     

  Number of irreducible atoms/shells =       6


  Total number atoms/shells =      16

  Dimensionality = 3               :  Bulk   


  Symmetry :

  Crystal family                   :  Tetragonal  
  Crystal class  (Groth - 1921)    :  Ditetragonal Dipyramidal             

  Space group (centrosymmetric)    :  I 4/M C M       

  Patterson group                  :  I 4/m m m

  Cartesian lattice vectors (Angstroms) :

       -2.100000    2.100000    2.100000
        2.100000   -2.100000    2.100000
        2.100000    2.100000   -2.100000

  Primitive cell parameters :            Full cell parameters :

  a =   3.6373    alpha = 109.4712       a =   4.2000    alpha =  90.0000
  b =   3.6373    beta  = 109.4712       b =   4.2000    beta  =  90.0000
  c =   3.6373    gamma = 109.4712       c =   4.2000    gamma =  90.0000

  Initial volumes (Angstroms**3):

  Primitive cell =          37.044000    Full cell =          74.088000

  Temperature of configuration =  0.000     K 

  Pressure of configuration =         0.000 GPa 

  Fractional coordinates of asymmetric unit :

--------------------------------------------------------------------------------
   No.  Atomic       x           y          z         Charge      Occupancy
        Label      (Frac)      (Frac)     (Frac)        (e)         (Frac)  
--------------------------------------------------------------------------------
      1 K     c    0.000000    0.500000    0.250000     1.20000    1.000000    
      2 Mn    c    0.000000    0.000000    0.000000     2.10000    1.000000    
      3 F     c    0.240600 *  0.740600    0.000000     0.37800    1.000000    
      4 F     c    0.000000    0.000000    0.250000     0.37800    1.000000    
      5 F     s    0.240600 *  0.740600    0.000000    -1.47800    1.000000    
      6 F     s    0.000000    0.000000    0.250000    -1.47800    1.000000    
--------------------------------------------------------------------------------


  Constraints : 

--------------------------------------------------------------------------------
  Constraint no.      Unconstrained     Constrained    Coefficient    Offset
                         Variable         Variable
--------------------------------------------------------------------------------
           1              Strain 1        Strain 2       1.00000      0.0000
           2                 3 x             3 y         1.00000      0.5000
           3                 5 x             5 y         1.00000      0.5000
--------------------------------------------------------------------------------


********************************************************************************
*  General input information                                                   *
********************************************************************************

  Species output for all configurations : 

--------------------------------------------------------------------------------
  Species    Type    Atomic    Atomic    Charge       Radii (Angs)     Library
                     Number     Mass       (e)     Cova   Ionic  VDW   Symbol
--------------------------------------------------------------------------------
    K        Core       19      39.10   1.200000   1.330  0.000  2.800          
    Mn       Core       25      54.94   2.100000   1.350  0.000  2.010          
    F        Core        9      19.00   0.378000   0.710  0.000  1.300          
    F        Shell       9       0.00  -1.478000   0.710  0.000  1.300          
--------------------------------------------------------------------------------


  Lattice summation method               =    Ewald          (3-D)
                                         =    Parry          (2-D)
                                         =    Saunders et al (1-D)
  Accuracy factor for lattice sums       =   12.000


  Time limit = Infinity

  Maximum range for interatomic potentials =    100000.000000 Angstroms

  General interatomic potentials :

--------------------------------------------------------------------------------
Atom  Types   Potential         A         B         C         D     Cutoffs(Ang)
  1     2                                                            Min    Max 
--------------------------------------------------------------------------------
K    c K    c Buckingham    0.219E+04 0.192      0.00      0.00     0.000 10.000
Mn   c F    s Buckingham    0.148E+04 0.266      0.00      0.00     0.000 10.000
F    s F    s Buckingham     912.     0.271      13.8      0.00     0.000 10.000
K    c F    s Buckingham    0.352E+04 0.267      0.00      0.00     0.000 10.000
F    c F    s Spring (c-s)   28.0      0.00      0.00      0.00     0.000  0.800
--------------------------------------------------------------------------------

********************************************************************************
*  Output for configuration   1                                                *
********************************************************************************


  Components of energy : 

--------------------------------------------------------------------------------
  Interatomic potentials     =         251.00594115 eV
  Monopole - monopole (real) =         -61.02248659 eV
  Monopole - monopole (recip)=        -102.52044910 eV
  Monopole - monopole (total)=        -163.54293568 eV
--------------------------------------------------------------------------------
  Total lattice energy : 
    Primitive unit cell      =          87.46300546 eV
    Non-primitive unit cell  =         174.92601092 eV
--------------------------------------------------------------------------------
  Total lattice energy (in kJmol-1): 
    Primitive unit cell      =            8438.8430 kJ/(mole unit cells)
    Non-primitive unit cell  =           16877.6861 kJ/(mole unit cells)
--------------------------------------------------------------------------------


  Number of variables =        4

  Maximum number of calculations  =          1000
  Maximum Hessian update interval =            10
  Maximum step size               =   1.000000000
  Maximum parameter tolerance     =   0.000010000
  Maximum function  tolerance     =   0.000010000
  Maximum gradient  tolerance     =   0.001000000
  Maximum gradient  component     =   0.010000000

  Symmetry constrained optimisation

  Symmetry used for second derivatives

  Cell parameters to be optimised using strains

  Newton-Raphson optimiser to be used

  BFGS hessian update to be used

  Start of bulk optimisation :

  Cycle:      0 Energy:        87.463005  Gnorm:    213.621891  CPU:    0.010
  ** Hessian calculated **
  Cycle:      1 Energy:       -93.027962  Gnorm:      5.390003  CPU:    0.034
  ** Hessian calculated **
  Cycle:      2 Energy:       -93.489916  Gnorm:      1.410935  CPU:    0.046
  Cycle:      3 Energy:       -93.499743  Gnorm:      0.946808  CPU:    0.055
  Cycle:      4 Energy:       -93.501030  Gnorm:      0.165654  CPU:    0.065
  Cycle:      5 Energy:       -93.501157  Gnorm:      0.051692  CPU:    0.074
  Cycle:      6 Energy:       -93.501161  Gnorm:      0.002611  CPU:    0.082


  **** Optimisation achieved ****


  Final energy =     -93.50116065 eV
  Final Gnorm  =       0.00004514

  Components of energy : 

--------------------------------------------------------------------------------
  Interatomic potentials     =          12.88428184 eV
  Monopole - monopole (real) =         -37.63522268 eV
  Monopole - monopole (recip)=         -68.75021981 eV
  Monopole - monopole (total)=        -106.38544249 eV
--------------------------------------------------------------------------------
  Total lattice energy : 
    Primitive unit cell      =         -93.50116065 eV
    Non-primitive unit cell  =        -187.00232131 eV
--------------------------------------------------------------------------------
  Total lattice energy (in kJmol-1): 
    Primitive unit cell      =           -9021.4327 kJ/(mole unit cells)
    Non-primitive unit cell  =          -18042.8654 kJ/(mole unit cells)
--------------------------------------------------------------------------------

  Final asymmetric unit coordinates :

--------------------------------------------------------------------------------
   No.  Atomic        x           y           z         Radius
        Label       (Frac)      (Frac)      (Frac)       (Angs) 
--------------------------------------------------------------------------------
     1  K     c     0.000000    0.500000    0.250000    0.000000
     2  Mn    c     0.000000    0.000000    0.000000    0.000000
     3  F     c     0.250000    0.750000    0.000000    0.000000
     4  F     c     0.000000    0.000000    0.250000    0.000000
     5  F     s     0.250000    0.750000    0.000000    0.000000
     6  F     s     0.000000    0.000000    0.250000    0.000000
--------------------------------------------------------------------------------

  Final Cartesian lattice vectors (Angstroms) :

       -2.797154    2.797154    3.955771
        2.797154   -2.797154    3.955771
        2.797154    2.797154   -3.955771


  Final cell parameters and derivatives :

--------------------------------------------------------------------------------
       a            5.594306 Angstrom     dE/de1(xx)     0.000174 eV/strain
       b            5.594306 Angstrom     dE/de2(yy)     0.000000 eV/strain
       c            5.594306 Angstrom     dE/de3(zz)     0.000033 eV/strain
       alpha      119.999981 Degrees      dE/de4(yz)     0.000000 eV/strain
       beta       119.999981 Degrees      dE/de5(xz)     0.000000 eV/strain
       gamma       90.000034 Degrees      dE/de6(xy)     0.000000 eV/strain
--------------------------------------------------------------------------------

  Primitive cell volume =           123.800890 Angs**3

  Density of cell =      4.051858 g/cm**3

  Non-primitive lattice parameters :

  a    =     5.594308  b   =     5.594308  c    =     7.911541
  alpha=    90.000000  beta=    90.000000  gamma=    90.000000

  Non-primitive cell volume =           247.601781 Angs**3


  Final internal derivatives :

--------------------------------------------------------------------------------
   No.  Atomic          a             b             c           Radius
        Label          (eV)          (eV)          (eV)        (eV/Angs)
--------------------------------------------------------------------------------
      1 K     c       0.000000      0.000000      0.000000      0.000000
      2 Mn    c       0.000000      0.000000      0.000000      0.000000
      3 F     c       0.000032      0.000000      0.000000      0.000000
      4 F     c       0.000000      0.000000      0.000000      0.000000
      5 F     s      -0.000017      0.000000      0.000000      0.000000
      6 F     s       0.000000      0.000000      0.000000      0.000000
--------------------------------------------------------------------------------
  Maximum abs         0.000032      0.000000      0.000000      0.000000
--------------------------------------------------------------------------------


  Born effective charge tensors : 

-------------------------------------------------------------------------------
  Atom             x           y             z
-------------------------------------------------------------------------------
   1 K     x       1.2259      0.0000      0.0000
           y       0.0000      1.2259      0.0000
           z       0.0000      0.0000      1.2259
-------------------------------------------------------------------------------
   2 Mn    x       1.6490      0.0000      0.0000
           y       0.0000      1.6490      0.0000
           z       0.0000      0.0000      1.6490
-------------------------------------------------------------------------------
   3 F     x      -0.9656      0.0218      0.0000
           y       0.0218     -0.9656      0.0000
           z       0.0000      0.0000     -0.9438
-------------------------------------------------------------------------------
   4 F     x      -0.9438      0.0000      0.0000
           y       0.0000     -0.9438      0.0000
           z       0.0000      0.0000     -0.9873
-------------------------------------------------------------------------------




  Elastic Constant Matrix: (Units=GPa)

-------------------------------------------------------------------------------
  Indices      1         2         3         4         5         6    
-------------------------------------------------------------------------------
       1    175.5570   59.3704   58.0932    0.0000    0.0000    0.0000
       2     59.3704  175.5570   58.0932    0.0000    0.0000    0.0000
       3     58.0932   58.0932  176.8348    0.0000    0.0000    0.0000
       4      0.0000    0.0000    0.0000   58.0933    0.0000    0.0000
       5      0.0000    0.0000    0.0000    0.0000   58.0933    0.0000
       6      0.0000    0.0000    0.0000    0.0000    0.0000   59.3705
-------------------------------------------------------------------------------


  Elastic Compliance Matrix: (Units=1/GPa)

-------------------------------------------------------------------------------
  Indices      1         2         3         4         5         6    
-------------------------------------------------------------------------------
       1    0.006845 -0.001762 -0.001670  0.000000  0.000000  0.000000
       2   -0.001762  0.006845 -0.001670  0.000000  0.000000  0.000000
       3   -0.001670 -0.001670  0.006752  0.000000  0.000000  0.000000
       4    0.000000  0.000000  0.000000  0.017214  0.000000  0.000000
       5    0.000000  0.000000  0.000000  0.000000  0.017214  0.000000
       6    0.000000  0.000000  0.000000  0.000000  0.000000  0.016843
-------------------------------------------------------------------------------

  Mechanical properties :

-------------------------------------------------------------------------------
  Convention :                    Reuss         Voigt         Hill
-------------------------------------------------------------------------------
  Bulk  Modulus (GPa)     =      97.67361      97.67361      97.67361
  Shear Modulus (GPa)     =      58.59757      58.60422      58.60089
-------------------------------------------------------------------------------
  Velocity S-wave (km/s)  =       3.80288       3.80310       3.80299
  Velocity P-wave (km/s)  =       6.58699       6.58715       6.58707
-------------------------------------------------------------------------------
  Compressibility (1/GPa) =    0.01023818
-------------------------------------------------------------------------------
  Stress axis :                     x             y             z
-------------------------------------------------------------------------------
  Youngs Moduli (GPa)     =     146.10033     146.10033     148.10405
-------------------------------------------------------------------------------
  Poissons Ratio (x)      =                     0.25746       0.24728
  Poissons Ratio (y)      =       0.25746                     0.24728
  Poissons Ratio (z)      =       0.24394       0.24394
-------------------------------------------------------------------------------


  Piezoelectric Strain Matrix: (Units=C/m**2)

-------------------------------------------------------------------------------
  Indices      1         2         3         4         5         6    
-------------------------------------------------------------------------------
       x     0.00000   0.00000   0.00000   0.00000   0.00000   0.00000
       y     0.00000   0.00000   0.00000   0.00000   0.00000   0.00000
       z     0.00000   0.00000   0.00000   0.00000   0.00000   0.00000
-------------------------------------------------------------------------------


  Piezoelectric Stress Matrix: (Units=10**-11 C/N)

-------------------------------------------------------------------------------
  Indices      1         2         3         4         5         6    
-------------------------------------------------------------------------------
       x     0.00000   0.00000   0.00000   0.00000   0.00000   0.00000
       y     0.00000   0.00000   0.00000   0.00000   0.00000   0.00000
       z     0.00000   0.00000   0.00000   0.00000   0.00000   0.00000
-------------------------------------------------------------------------------


  Static dielectric constant tensor : 

-------------------------------------------------------------------------------
              x         y         z
-------------------------------------------------------------------------------
       x     5.23588   0.00000   0.00000
       y     0.00000   5.23588   0.00000
       z     0.00000   0.00000   5.23586
--------------------------------------------------------------------------------

  High frequency dielectric constant tensor : 

-------------------------------------------------------------------------------
              x         y         z
-------------------------------------------------------------------------------
       x     1.65760   0.00000   0.00000
       y     0.00000   1.65760   0.00000
       z     0.00000   0.00000   1.65759
-------------------------------------------------------------------------------

  Static refractive indices : 

-------------------------------------------------------------------------------
    1 =    2.28820      2 =    2.28820      3 =    2.28820
-------------------------------------------------------------------------------

  High frequency refractive indices : 

-------------------------------------------------------------------------------
    1 =    1.28748      2 =    1.28748      3 =    1.28748
-------------------------------------------------------------------------------


  Time to end of optimisation =       0.0987 seconds


  Peak dynamic memory used =       0.59 MB 


  Timing analysis for GULP :

--------------------------------------------------------------------------------
  Task / Subroutine                                          Time (Seconds)
--------------------------------------------------------------------------------
  Calculation of reciprocal space energy and derivatives          0.0012
  Calculation of reciprocal space energy using symmetry           0.0035
  Calculation of real space energy and derivatives                0.0070
  Calculation of real space energy using symmetry                 0.0827
  Symmetry generation of equivalent positions                     0.0005
--------------------------------------------------------------------------------
  Total CPU time                                                  0.0987
--------------------------------------------------------------------------------


  CIF file written as perov.cif                                               


  Job Finished at 13:10.01 22nd February   2017                               

