********************************************************************************
*                       GENERAL UTILITY LATTICE PROGRAM                        *
*                                 Julian Gale                                  *
*                      Nanochemistry Research Institute                        *
*                           Department of Chemistry                            *
*                    Curtin University, Western Australia                      *
********************************************************************************
* Version = 4.3.2 * Last modified =  3rd March 2015                            *
********************************************************************************
*  optimise     - perform optimisation run                                     *
*  conp         - constant pressure calculation                                *
*  property     - calculate properties for final geometry                      *
********************************************************************************

  Job Started  at 13:10.03 22nd February   2017                               

  Number of CPUs =     1


  Total number of configurations input =   1

********************************************************************************
*  Input for Configuration =   1                                               *
********************************************************************************

  Formula = K2Mn2F6                                                     

  Number of irreducible atoms/shells =       6


  Total number atoms/shells =      16

  Dimensionality = 3               :  Bulk   


  Symmetry :

  Crystal family                   :  Tetragonal  
  Crystal class  (Groth - 1921)    :  Ditetragonal Dipyramidal             

  Space group (centrosymmetric)    :  I 4/M C M       

  Patterson group                  :  I 4/m m m

  Cartesian lattice vectors (Angstroms) :

       -2.100000    2.100000    2.100000
        2.100000   -2.100000    2.100000
        2.100000    2.100000   -2.100000

  Primitive cell parameters :            Full cell parameters :

  a =   3.6373    alpha = 109.4712       a =   4.2000    alpha =  90.0000
  b =   3.6373    beta  = 109.4712       b =   4.2000    beta  =  90.0000
  c =   3.6373    gamma = 109.4712       c =   4.2000    gamma =  90.0000

  Initial volumes (Angstroms**3):

  Primitive cell =          37.044000    Full cell =          74.088000

  Temperature of configuration =  0.000     K 

  Pressure of configuration =         0.000 GPa 

  Fractional coordinates of asymmetric unit :

--------------------------------------------------------------------------------
   No.  Atomic       x           y          z         Charge      Occupancy
        Label      (Frac)      (Frac)     (Frac)        (e)         (Frac)  
--------------------------------------------------------------------------------
      1 K     c    0.000000    0.500000    0.250000     1.40000    1.000000    
      2 Mn    c    0.000000    0.000000    0.000000     1.80000    1.000000    
      3 F     c    0.240600 *  0.740600    0.000000     0.37800    1.000000    
      4 F     c    0.000000    0.000000    0.250000     0.37800    1.000000    
      5 F     s    0.240600 *  0.740600    0.000000    -1.44467    1.000000    
      6 F     s    0.000000    0.000000    0.250000    -1.44467    1.000000    
--------------------------------------------------------------------------------


  Constraints : 

--------------------------------------------------------------------------------
  Constraint no.      Unconstrained     Constrained    Coefficient    Offset
                         Variable         Variable
--------------------------------------------------------------------------------
           1              Strain 1        Strain 2       1.00000      0.0000
           2                 3 x             3 y         1.00000      0.5000
           3                 5 x             5 y         1.00000      0.5000
--------------------------------------------------------------------------------


********************************************************************************
*  General input information                                                   *
********************************************************************************

  Species output for all configurations : 

--------------------------------------------------------------------------------
  Species    Type    Atomic    Atomic    Charge       Radii (Angs)     Library
                     Number     Mass       (e)     Cova   Ionic  VDW   Symbol
--------------------------------------------------------------------------------
    K        Core       19      39.10   1.400000   1.330  0.000  2.800          
    Mn       Core       25      54.94   1.800000   1.350  0.000  2.010          
    F        Core        9      19.00   0.378000   0.710  0.000  1.300          
    F        Shell       9       0.00  -1.444667   0.710  0.000  1.300          
--------------------------------------------------------------------------------


  Lattice summation method               =    Ewald          (3-D)
                                         =    Parry          (2-D)
                                         =    Saunders et al (1-D)
  Accuracy factor for lattice sums       =   12.000


  Time limit = Infinity

  Maximum range for interatomic potentials =    100000.000000 Angstroms

  General interatomic potentials :

--------------------------------------------------------------------------------
Atom  Types   Potential         A         B         C         D     Cutoffs(Ang)
  1     2                                                            Min    Max 
--------------------------------------------------------------------------------
K    c K    c Buckingham    0.219E+04 0.192      0.00      0.00     0.000 10.000
Mn   c F    s Buckingham    0.148E+04 0.266      0.00      0.00     0.000 10.000
F    s F    s Buckingham     912.     0.271      13.8      0.00     0.000 10.000
K    c F    s Buckingham    0.352E+04 0.267      0.00      0.00     0.000 10.000
F    c F    s Spring (c-s)   26.8      0.00      0.00      0.00     0.000  0.800
--------------------------------------------------------------------------------

********************************************************************************
*  Output for configuration   1                                                *
********************************************************************************


  Components of energy : 

--------------------------------------------------------------------------------
  Interatomic potentials     =         251.00594115 eV
  Monopole - monopole (real) =         -52.76362850 eV
  Monopole - monopole (recip)=         -92.83305122 eV
  Monopole - monopole (total)=        -145.59667973 eV
--------------------------------------------------------------------------------
  Total lattice energy : 
    Primitive unit cell      =         105.40926142 eV
    Non-primitive unit cell  =         210.81852284 eV
--------------------------------------------------------------------------------
  Total lattice energy (in kJmol-1): 
    Primitive unit cell      =           10170.3824 kJ/(mole unit cells)
    Non-primitive unit cell  =           20340.7648 kJ/(mole unit cells)
--------------------------------------------------------------------------------


  Number of variables =        4

  Maximum number of calculations  =          1000
  Maximum Hessian update interval =            10
  Maximum step size               =   1.000000000
  Maximum parameter tolerance     =   0.000010000
  Maximum function  tolerance     =   0.000010000
  Maximum gradient  tolerance     =   0.001000000
  Maximum gradient  component     =   0.010000000

  Symmetry constrained optimisation

  Symmetry used for second derivatives

  Cell parameters to be optimised using strains

  Newton-Raphson optimiser to be used

  BFGS hessian update to be used

  Start of bulk optimisation :

  Cycle:      0 Energy:       105.409261  Gnorm:    216.486482  CPU:    0.010
  ** Hessian calculated **
  Cycle:      1 Energy:       -81.747204  Gnorm:      6.848707  CPU:    0.035
  ** Hessian calculated **
  Cycle:      2 Energy:       -82.364443  Gnorm:      3.336634  CPU:    0.047
  ** Hessian calculated **
  Cycle:      3 Energy:       -82.423161  Gnorm:      2.086513  CPU:    0.060
  Cycle:      4 Energy:       -82.429599  Gnorm:      0.087889  CPU:    0.069
  Cycle:      5 Energy:       -82.429821  Gnorm:      0.042954  CPU:    0.076
  Cycle:      6 Energy:       -82.429827  Gnorm:      0.003181  CPU:    0.084
  Cycle:      7 Energy:       -82.429827  Gnorm:      0.001369  CPU:    0.091


  **** Optimisation achieved ****


  Final energy =     -82.42982697 eV
  Final Gnorm  =       0.00013925

  Components of energy : 

--------------------------------------------------------------------------------
  Interatomic potentials     =          10.99837824 eV
  Monopole - monopole (real) =         -16.45194101 eV
  Monopole - monopole (recip)=         -76.97626420 eV
  Monopole - monopole (total)=         -93.42820521 eV
--------------------------------------------------------------------------------
  Total lattice energy : 
    Primitive unit cell      =         -82.42982697 eV
    Non-primitive unit cell  =        -164.85965394 eV
--------------------------------------------------------------------------------
  Total lattice energy (in kJmol-1): 
    Primitive unit cell      =           -7953.2182 kJ/(mole unit cells)
    Non-primitive unit cell  =          -15906.4365 kJ/(mole unit cells)
--------------------------------------------------------------------------------

  Final asymmetric unit coordinates :

--------------------------------------------------------------------------------
   No.  Atomic        x           y           z         Radius
        Label       (Frac)      (Frac)      (Frac)       (Angs) 
--------------------------------------------------------------------------------
     1  K     c     0.000000    0.500000    0.250000    0.000000
     2  Mn    c     0.000000    0.000000    0.000000    0.000000
     3  F     c     0.296289    0.796289    0.000000    0.000000
     4  F     c     0.000000    0.000000    0.250000    0.000000
     5  F     s     0.295924    0.795924    0.000000    0.000000
     6  F     s     0.000000    0.000000    0.250000    0.000000
--------------------------------------------------------------------------------

  Final Cartesian lattice vectors (Angstroms) :

       -2.831502    2.831502    4.058855
        2.831502   -2.831502    4.058855
        2.831502    2.831502   -4.058855


  Final cell parameters and derivatives :

--------------------------------------------------------------------------------
       a            5.701676 Angstrom     dE/de1(xx)    -0.000270 eV/strain
       b            5.701676 Angstrom     dE/de2(yy)     0.000000 eV/strain
       c            5.701676 Angstrom     dE/de3(zz)    -0.000099 eV/strain
       alpha      120.448233 Degrees      dE/de4(yz)     0.000000 eV/strain
       beta       120.448233 Degrees      dE/de5(xz)     0.000000 eV/strain
       gamma       89.225376 Degrees      dE/de6(xy)     0.000000 eV/strain
--------------------------------------------------------------------------------

  Primitive cell volume =           130.165868 Angs**3

  Density of cell =      3.853726 g/cm**3

  Non-primitive lattice parameters :

  a    =     5.663003  b   =     5.663003  c    =     8.117710
  alpha=    90.000000  beta=    90.000000  gamma=    90.000000

  Non-primitive cell volume =           260.331737 Angs**3


  Final internal derivatives :

--------------------------------------------------------------------------------
   No.  Atomic          a             b             c           Radius
        Label          (eV)          (eV)          (eV)        (eV/Angs)
--------------------------------------------------------------------------------
      1 K     c       0.000000      0.000000      0.000000      0.000000
      2 Mn    c       0.000000      0.000000      0.000000      0.000000
      3 F     c       0.000325      0.000000      0.000000      0.000000
      4 F     c       0.000000      0.000000      0.000000      0.000000
      5 F     s      -0.000349      0.000000      0.000000      0.000000
      6 F     s       0.000000      0.000000      0.000000      0.000000
--------------------------------------------------------------------------------
  Maximum abs         0.000349      0.000000      0.000000      0.000000
--------------------------------------------------------------------------------


  Born effective charge tensors : 

-------------------------------------------------------------------------------
  Atom             x           y             z
-------------------------------------------------------------------------------
   1 K     x       1.4551      0.0000      0.0000
           y       0.0000      1.4551      0.0000
           z       0.0000      0.0000      1.4086
-------------------------------------------------------------------------------
   2 Mn    x       1.4063      0.0009      0.0000
           y      -0.0009      1.4063      0.0000
           z       0.0000      0.0000      1.3805
-------------------------------------------------------------------------------
   3 F     x      -0.9407     -0.0166      0.0000
           y      -0.0166     -0.9407      0.0000
           z       0.0000      0.0000     -0.9431
-------------------------------------------------------------------------------
   4 F     x      -0.9800      0.0000      0.0000
           y       0.0000     -0.9800      0.0000
           z       0.0000      0.0000     -0.9029
-------------------------------------------------------------------------------




  Elastic Constant Matrix: (Units=GPa)

-------------------------------------------------------------------------------
  Indices      1         2         3         4         5         6    
-------------------------------------------------------------------------------
       1    134.3874   54.8118   53.5009    0.0000    0.0000    0.0000
       2     54.8118  134.3874   53.5009    0.0000    0.0000    0.0000
       3     53.5009   53.5009  165.1568    0.0000    0.0000    0.0000
       4      0.0000    0.0000    0.0000   48.7828    0.0000    0.0000
       5      0.0000    0.0000    0.0000    0.0000   48.7828    0.0000
       6      0.0000    0.0000    0.0000    0.0000    0.0000   47.6790
-------------------------------------------------------------------------------


  Elastic Compliance Matrix: (Units=1/GPa)

-------------------------------------------------------------------------------
  Indices      1         2         3         4         5         6    
-------------------------------------------------------------------------------
       1    0.009519 -0.003048 -0.002096  0.000000  0.000000  0.000000
       2   -0.003048  0.009519 -0.002096  0.000000  0.000000  0.000000
       3   -0.002096 -0.002096  0.007413  0.000000  0.000000  0.000000
       4    0.000000  0.000000  0.000000  0.020499  0.000000  0.000000
       5    0.000000  0.000000  0.000000  0.000000  0.020499  0.000000
       6    0.000000  0.000000  0.000000  0.000000  0.000000  0.020974
-------------------------------------------------------------------------------

  Mechanical properties :

-------------------------------------------------------------------------------
  Convention :                    Reuss         Voigt         Hill
-------------------------------------------------------------------------------
  Bulk  Modulus (GPa)     =      83.54198      84.17320      83.85759
  Shear Modulus (GPa)     =      46.77589      47.19013      46.98301
-------------------------------------------------------------------------------
  Velocity S-wave (km/s)  =       3.48394       3.49933       3.49164
  Velocity P-wave (km/s)  =       6.15321       6.17812       6.16568
-------------------------------------------------------------------------------
  Compressibility (1/GPa) =    0.01197003
-------------------------------------------------------------------------------
  Stress axis :                     x             y             z
-------------------------------------------------------------------------------
  Youngs Moduli (GPa)     =     105.05527     105.05527     134.89930
-------------------------------------------------------------------------------
  Poissons Ratio (x)      =                     0.32019       0.28278
  Poissons Ratio (y)      =       0.32019                     0.28278
  Poissons Ratio (z)      =       0.22022       0.22022
-------------------------------------------------------------------------------


  Piezoelectric Strain Matrix: (Units=C/m**2)

-------------------------------------------------------------------------------
  Indices      1         2         3         4         5         6    
-------------------------------------------------------------------------------
       x     0.00000   0.00000   0.00000   0.00000   0.00000   0.00000
       y     0.00000   0.00000   0.00000   0.00000   0.00000   0.00000
       z     0.00000   0.00000   0.00000   0.00000   0.00000   0.00000
-------------------------------------------------------------------------------


  Piezoelectric Stress Matrix: (Units=10**-11 C/N)

-------------------------------------------------------------------------------
  Indices      1         2         3         4         5         6    
-------------------------------------------------------------------------------
       x     0.00000   0.00000   0.00000   0.00000   0.00000   0.00000
       y     0.00000   0.00000   0.00000   0.00000   0.00000   0.00000
       z     0.00000   0.00000   0.00000   0.00000   0.00000   0.00000
-------------------------------------------------------------------------------


  Static dielectric constant tensor : 

-------------------------------------------------------------------------------
              x         y         z
-------------------------------------------------------------------------------
       x     7.55330   0.00000   0.00000
       y     0.00000   7.55330   0.00000
       z     0.00000   0.00000   4.70894
--------------------------------------------------------------------------------

  High frequency dielectric constant tensor : 

-------------------------------------------------------------------------------
              x         y         z
-------------------------------------------------------------------------------
       x     1.63681   0.00000   0.00000
       y     0.00000   1.63681   0.00000
       z     0.00000   0.00000   1.62290
-------------------------------------------------------------------------------

  Static refractive indices : 

-------------------------------------------------------------------------------
    1 =    2.17001      2 =    2.74833      3 =    2.74833
-------------------------------------------------------------------------------

  High frequency refractive indices : 

-------------------------------------------------------------------------------
    1 =    1.27393      2 =    1.27938      3 =    1.27938
-------------------------------------------------------------------------------


  Time to end of optimisation =       0.1081 seconds


  Peak dynamic memory used =       0.59 MB 


  Timing analysis for GULP :

--------------------------------------------------------------------------------
  Task / Subroutine                                          Time (Seconds)
--------------------------------------------------------------------------------
  Calculation of reciprocal space energy and derivatives          0.0013
  Calculation of reciprocal space energy using symmetry           0.0039
  Calculation of real space energy and derivatives                0.0070
  Calculation of real space energy using symmetry                 0.0915
  Symmetry generation of equivalent positions                     0.0004
--------------------------------------------------------------------------------
  Total CPU time                                                  0.1081
--------------------------------------------------------------------------------


  CIF file written as perov.cif                                               


  Job Finished at 13:10.03 22nd February   2017                               

