********************************************************************************
*                       GENERAL UTILITY LATTICE PROGRAM                        *
*                                 Julian Gale                                  *
*                      Nanochemistry Research Institute                        *
*                           Department of Chemistry                            *
*                    Curtin University, Western Australia                      *
********************************************************************************
* Version = 4.3.2 * Last modified =  3rd March 2015                            *
********************************************************************************
*  optimise     - perform optimisation run                                     *
*  conp         - constant pressure calculation                                *
*  property     - calculate properties for final geometry                      *
********************************************************************************

  Job Started  at 13:09.56 22nd February   2017                               

  Number of CPUs =     1


  Total number of configurations input =   1

********************************************************************************
*  Input for Configuration =   1                                               *
********************************************************************************

  Formula = K2Mn2F6                                                     

  Number of irreducible atoms/shells =       6


  Total number atoms/shells =      16

  Dimensionality = 3               :  Bulk   


  Symmetry :

  Crystal family                   :  Tetragonal  
  Crystal class  (Groth - 1921)    :  Ditetragonal Dipyramidal             

  Space group (centrosymmetric)    :  I 4/M C M       

  Patterson group                  :  I 4/m m m

  Cartesian lattice vectors (Angstroms) :

       -2.100000    2.100000    2.100000
        2.100000   -2.100000    2.100000
        2.100000    2.100000   -2.100000

  Primitive cell parameters :            Full cell parameters :

  a =   3.6373    alpha = 109.4712       a =   4.2000    alpha =  90.0000
  b =   3.6373    beta  = 109.4712       b =   4.2000    beta  =  90.0000
  c =   3.6373    gamma = 109.4712       c =   4.2000    gamma =  90.0000

  Initial volumes (Angstroms**3):

  Primitive cell =          37.044000    Full cell =          74.088000

  Temperature of configuration =  0.000     K 

  Pressure of configuration =         0.000 GPa 

  Fractional coordinates of asymmetric unit :

--------------------------------------------------------------------------------
   No.  Atomic       x           y          z         Charge      Occupancy
        Label      (Frac)      (Frac)     (Frac)        (e)         (Frac)  
--------------------------------------------------------------------------------
      1 K     c    0.000000    0.500000    0.250000     0.90000    1.000000    
      2 Mn    c    0.000000    0.000000    0.000000     1.70000    1.000000    
      3 F     c    0.240600 *  0.740600    0.000000     0.37800    1.000000    
      4 F     c    0.000000    0.000000    0.250000     0.37800    1.000000    
      5 F     s    0.240600 *  0.740600    0.000000    -1.24467    1.000000    
      6 F     s    0.000000    0.000000    0.250000    -1.24467    1.000000    
--------------------------------------------------------------------------------


  Constraints : 

--------------------------------------------------------------------------------
  Constraint no.      Unconstrained     Constrained    Coefficient    Offset
                         Variable         Variable
--------------------------------------------------------------------------------
           1              Strain 1        Strain 2       1.00000      0.0000
           2                 3 x             3 y         1.00000      0.5000
           3                 5 x             5 y         1.00000      0.5000
--------------------------------------------------------------------------------


********************************************************************************
*  General input information                                                   *
********************************************************************************

  Species output for all configurations : 

--------------------------------------------------------------------------------
  Species    Type    Atomic    Atomic    Charge       Radii (Angs)     Library
                     Number     Mass       (e)     Cova   Ionic  VDW   Symbol
--------------------------------------------------------------------------------
    K        Core       19      39.10   0.900000   1.330  0.000  2.800          
    Mn       Core       25      54.94   1.700000   1.350  0.000  2.010          
    F        Core        9      19.00   0.378000   0.710  0.000  1.300          
    F        Shell       9       0.00  -1.244667   0.710  0.000  1.300          
--------------------------------------------------------------------------------


  Lattice summation method               =    Ewald          (3-D)
                                         =    Parry          (2-D)
                                         =    Saunders et al (1-D)
  Accuracy factor for lattice sums       =   12.000


  Time limit = Infinity

  Maximum range for interatomic potentials =    100000.000000 Angstroms

  General interatomic potentials :

--------------------------------------------------------------------------------
Atom  Types   Potential         A         B         C         D     Cutoffs(Ang)
  1     2                                                            Min    Max 
--------------------------------------------------------------------------------
K    c K    c Buckingham    0.219E+04 0.192      0.00      0.00     0.000 10.000
Mn   c F    s Buckingham    0.148E+04 0.266      0.00      0.00     0.000 10.000
F    s F    s Buckingham     912.     0.271      13.8      0.00     0.000 10.000
K    c F    s Buckingham    0.352E+04 0.267      0.00      0.00     0.000 10.000
F    c F    s Spring (c-s)   19.9      0.00      0.00      0.00     0.000  0.800
--------------------------------------------------------------------------------

********************************************************************************
*  Output for configuration   1                                                *
********************************************************************************


  Components of energy : 

--------------------------------------------------------------------------------
  Interatomic potentials     =         251.00594115 eV
  Monopole - monopole (real) =         -38.61284200 eV
  Monopole - monopole (recip)=         -64.40061505 eV
  Monopole - monopole (total)=        -103.01345705 eV
--------------------------------------------------------------------------------
  Total lattice energy : 
    Primitive unit cell      =         147.99248409 eV
    Non-primitive unit cell  =         295.98496818 eV
--------------------------------------------------------------------------------
  Total lattice energy (in kJmol-1): 
    Primitive unit cell      =           14279.0124 kJ/(mole unit cells)
    Non-primitive unit cell  =           28558.0249 kJ/(mole unit cells)
--------------------------------------------------------------------------------


  Number of variables =        4

  Maximum number of calculations  =          1000
  Maximum Hessian update interval =            10
  Maximum step size               =   1.000000000
  Maximum parameter tolerance     =   0.000010000
  Maximum function  tolerance     =   0.000010000
  Maximum gradient  tolerance     =   0.001000000
  Maximum gradient  component     =   0.010000000

  Symmetry constrained optimisation

  Symmetry used for second derivatives

  Cell parameters to be optimised using strains

  Newton-Raphson optimiser to be used

  BFGS hessian update to be used

  Start of bulk optimisation :

  Cycle:      0 Energy:       147.992484  Gnorm:    224.450214  CPU:    0.010
  ** Hessian calculated **
  Cycle:      1 Energy:       -54.128302  Gnorm:      7.220808  CPU:    0.032
  ** Hessian calculated **
  Cycle:      2 Energy:       -55.313182  Gnorm:      1.205093  CPU:    0.045
  Cycle:      3 Energy:       -55.335013  Gnorm:      0.625282  CPU:    0.053
  Cycle:      4 Energy:       -55.339630  Gnorm:      0.529811  CPU:    0.060
  Cycle:      5 Energy:       -55.340376  Gnorm:      0.138186  CPU:    0.067
  Cycle:      6 Energy:       -55.340408  Gnorm:      0.003452  CPU:    0.075


  **** Optimisation achieved ****


  Final energy =     -55.34040875 eV
  Final Gnorm  =       0.00053056

  Components of energy : 

--------------------------------------------------------------------------------
  Interatomic potentials     =           7.10624744 eV
  Monopole - monopole (real) =          -9.40205856 eV
  Monopole - monopole (recip)=         -53.04459763 eV
  Monopole - monopole (total)=         -62.44665619 eV
--------------------------------------------------------------------------------
  Total lattice energy : 
    Primitive unit cell      =         -55.34040875 eV
    Non-primitive unit cell  =        -110.68081750 eV
--------------------------------------------------------------------------------
  Total lattice energy (in kJmol-1): 
    Primitive unit cell      =           -5339.5035 kJ/(mole unit cells)
    Non-primitive unit cell  =          -10679.0070 kJ/(mole unit cells)
--------------------------------------------------------------------------------

  Final asymmetric unit coordinates :

--------------------------------------------------------------------------------
   No.  Atomic        x           y           z         Radius
        Label       (Frac)      (Frac)      (Frac)       (Angs) 
--------------------------------------------------------------------------------
     1  K     c     0.000000    0.500000    0.250000    0.000000
     2  Mn    c     0.000000    0.000000    0.000000    0.000000
     3  F     c     0.249999    0.749999    0.000000    0.000000
     4  F     c     0.000000    0.000000    0.250000    0.000000
     5  F     s     0.249999    0.749999    0.000000    0.000000
     6  F     s     0.000000    0.000000    0.250000    0.000000
--------------------------------------------------------------------------------

  Final Cartesian lattice vectors (Angstroms) :

       -2.999572    2.999572    4.242093
        2.999572   -2.999572    4.242093
        2.999572    2.999572   -4.242093


  Final cell parameters and derivatives :

--------------------------------------------------------------------------------
       a            5.999185 Angstrom     dE/de1(xx)    -0.001743 eV/strain
       b            5.999185 Angstrom     dE/de2(yy)     0.000000 eV/strain
       c            5.999185 Angstrom     dE/de3(zz)     0.000062 eV/strain
       alpha      120.000450 Degrees      dE/de4(yz)     0.000000 eV/strain
       beta       120.000450 Degrees      dE/de5(xz)     0.000000 eV/strain
       gamma       89.999220 Degrees      dE/de6(xy)     0.000000 eV/strain
--------------------------------------------------------------------------------

  Primitive cell volume =           152.671781 Angs**3

  Density of cell =      3.285634 g/cm**3

  Non-primitive lattice parameters :

  a    =     5.999144  b   =     5.999144  c    =     8.484186
  alpha=    90.000000  beta=    90.000000  gamma=    90.000000

  Non-primitive cell volume =           305.343562 Angs**3


  Final internal derivatives :

--------------------------------------------------------------------------------
   No.  Atomic          a             b             c           Radius
        Label          (eV)          (eV)          (eV)        (eV/Angs)
--------------------------------------------------------------------------------
      1 K     c       0.000000      0.000000      0.000000      0.000000
      2 Mn    c       0.000000      0.000000      0.000000      0.000000
      3 F     c      -0.000878      0.000000      0.000000      0.000000
      4 F     c       0.000000      0.000000      0.000000      0.000000
      5 F     s       0.000832      0.000000      0.000000      0.000000
      6 F     s       0.000000      0.000000      0.000000      0.000000
--------------------------------------------------------------------------------
  Maximum abs         0.000878      0.000000      0.000000      0.000000
--------------------------------------------------------------------------------


  Born effective charge tensors : 

-------------------------------------------------------------------------------
  Atom             x           y             z
-------------------------------------------------------------------------------
   1 K     x       0.9272      0.0000      0.0000
           y       0.0000      0.9272      0.0000
           z       0.0000      0.0000      0.9272
-------------------------------------------------------------------------------
   2 Mn    x       1.3463      0.0000      0.0000
           y       0.0000      1.3463      0.0000
           z       0.0000      0.0000      1.3464
-------------------------------------------------------------------------------
   3 F     x      -0.7570     -0.0025      0.0000
           y      -0.0025     -0.7570      0.0000
           z       0.0000      0.0000     -0.7595
-------------------------------------------------------------------------------
   4 F     x      -0.7595      0.0000      0.0000
           y       0.0000     -0.7595      0.0000
           z       0.0000      0.0000     -0.7546
-------------------------------------------------------------------------------




  Elastic Constant Matrix: (Units=GPa)

-------------------------------------------------------------------------------
  Indices      1         2         3         4         5         6    
-------------------------------------------------------------------------------
       1     88.1077   35.9486   26.0802    0.0000    0.0000    0.0000
       2     35.9486   88.1077   26.0802    0.0000    0.0000    0.0000
       3     26.0802   26.0802   97.9667    0.0000    0.0000    0.0000
       4      0.0000    0.0000    0.0000   26.0798    0.0000    0.0000
       5      0.0000    0.0000    0.0000    0.0000   26.0798    0.0000
       6      0.0000    0.0000    0.0000    0.0000    0.0000   35.9477
-------------------------------------------------------------------------------


  Elastic Compliance Matrix: (Units=1/GPa)

-------------------------------------------------------------------------------
  Indices      1         2         3         4         5         6    
-------------------------------------------------------------------------------
       1    0.014124 -0.005048 -0.002416  0.000000  0.000000  0.000000
       2   -0.005048  0.014124 -0.002416  0.000000  0.000000  0.000000
       3   -0.002416 -0.002416  0.011494  0.000000  0.000000  0.000000
       4    0.000000  0.000000  0.000000  0.038344  0.000000  0.000000
       5    0.000000  0.000000  0.000000  0.000000  0.038344  0.000000
       6    0.000000  0.000000  0.000000  0.000000  0.000000  0.027818
-------------------------------------------------------------------------------

  Mechanical properties :

-------------------------------------------------------------------------------
  Convention :                    Reuss         Voigt         Hill
-------------------------------------------------------------------------------
  Bulk  Modulus (GPa)     =      50.04446      50.04446      50.04446
  Shear Modulus (GPa)     =      29.29620      30.02633      29.66126
-------------------------------------------------------------------------------
  Velocity S-wave (km/s)  =       2.98604       3.02302       3.00459
  Velocity P-wave (km/s)  =       5.20768       5.23605       5.22188
-------------------------------------------------------------------------------
  Compressibility (1/GPa) =    0.01998223
-------------------------------------------------------------------------------
  Stress axis :                     x             y             z
-------------------------------------------------------------------------------
  Youngs Moduli (GPa)     =      70.79905      70.79905      87.00106
-------------------------------------------------------------------------------
  Poissons Ratio (x)      =                     0.35737       0.21023
  Poissons Ratio (y)      =       0.35737                     0.21023
  Poissons Ratio (z)      =       0.17108       0.17108
-------------------------------------------------------------------------------


  Piezoelectric Strain Matrix: (Units=C/m**2)

-------------------------------------------------------------------------------
  Indices      1         2         3         4         5         6    
-------------------------------------------------------------------------------
       x     0.00000   0.00000   0.00000   0.00000   0.00000   0.00000
       y     0.00000   0.00000   0.00000   0.00000   0.00000   0.00000
       z     0.00000   0.00000   0.00000   0.00000   0.00000   0.00000
-------------------------------------------------------------------------------


  Piezoelectric Stress Matrix: (Units=10**-11 C/N)

-------------------------------------------------------------------------------
  Indices      1         2         3         4         5         6    
-------------------------------------------------------------------------------
       x     0.00000   0.00000   0.00000   0.00000   0.00000   0.00000
       y     0.00000   0.00000   0.00000   0.00000   0.00000   0.00000
       z     0.00000   0.00000   0.00000   0.00000   0.00000   0.00000
-------------------------------------------------------------------------------


  Static dielectric constant tensor : 

-------------------------------------------------------------------------------
              x         y         z
-------------------------------------------------------------------------------
       x     4.93692   0.00000   0.00000
       y     0.00000   4.93692   0.00000
       z     0.00000   0.00000   4.93730
--------------------------------------------------------------------------------

  High frequency dielectric constant tensor : 

-------------------------------------------------------------------------------
              x         y         z
-------------------------------------------------------------------------------
       x     1.53671   0.00000   0.00000
       y     0.00000   1.53671   0.00000
       z     0.00000   0.00000   1.53670
-------------------------------------------------------------------------------

  Static refractive indices : 

-------------------------------------------------------------------------------
    1 =    2.22192      2 =    2.22192      3 =    2.22200
-------------------------------------------------------------------------------

  High frequency refractive indices : 

-------------------------------------------------------------------------------
    1 =    1.23964      2 =    1.23964      3 =    1.23964
-------------------------------------------------------------------------------


  Time to end of optimisation =       0.0909 seconds


  Peak dynamic memory used =       0.59 MB 


  Timing analysis for GULP :

--------------------------------------------------------------------------------
  Task / Subroutine                                          Time (Seconds)
--------------------------------------------------------------------------------
  Calculation of reciprocal space energy and derivatives          0.0012
  Calculation of reciprocal space energy using symmetry           0.0032
  Calculation of real space energy and derivatives                0.0067
  Calculation of real space energy using symmetry                 0.0759
  Symmetry generation of equivalent positions                     0.0004
--------------------------------------------------------------------------------
  Total CPU time                                                  0.0909
--------------------------------------------------------------------------------


  CIF file written as perov.cif                                               


  Job Finished at 13:09.57 22nd February   2017                               

