********************************************************************************
*                       GENERAL UTILITY LATTICE PROGRAM                        *
*                                 Julian Gale                                  *
*                      Nanochemistry Research Institute                        *
*                           Department of Chemistry                            *
*                    Curtin University, Western Australia                      *
********************************************************************************
* Version = 4.3.2 * Last modified =  3rd March 2015                            *
********************************************************************************
*  optimise     - perform optimisation run                                     *
*  conp         - constant pressure calculation                                *
*  property     - calculate properties for final geometry                      *
********************************************************************************

  Job Started  at 14:08.38  6th April      2017                               

  Number of CPUs =     1


  Total number of configurations input =   1

********************************************************************************
*  Input for Configuration =   1                                               *
********************************************************************************

  Formula = K2Zn2F6                                                     

  Number of irreducible atoms/shells =       6


  Total number atoms/shells =      16

  Dimensionality = 3               :  Bulk   


  Symmetry :

  Crystal family                   :  Tetragonal  
  Crystal class  (Groth - 1921)    :  Ditetragonal Dipyramidal             

  Space group (centrosymmetric)    :  P 4/M B M       

  Patterson group                  :  P 4/m m m

  Cartesian lattice vectors (Angstroms) :

        4.200000    0.000000    0.000000
        0.000000    4.200000    0.000000
        0.000000    0.000000    4.200000

  Cell parameters (Angstroms/Degrees):

  a =       4.2000    alpha =  90.0000
  b =       4.2000    beta  =  90.0000
  c =       4.2000    gamma =  90.0000

  Initial cell volume =          74.088000 Angs**3

  Temperature of configuration =  0.000     K 

  Pressure of configuration =         0.000 GPa 

  Fractional coordinates of asymmetric unit :

--------------------------------------------------------------------------------
   No.  Atomic       x           y          z         Charge      Occupancy
        Label      (Frac)      (Frac)     (Frac)        (e)         (Frac)  
--------------------------------------------------------------------------------
      1 K     c    0.000000    0.000000    0.000000     0.50000    1.000000    
      2 Zn    c    0.000000    0.500000    0.000000     2.00000    1.000000    
      3 F     c    0.000000    0.500000    0.500000     0.37800    1.000000    
      4 F     c    0.227100 *  0.727100    0.000000     0.37800    1.000000    
      5 F     s    0.000000    0.500000    0.500000    -1.21133    1.000000    
      6 F     s    0.227100 *  0.727100    0.000000    -1.21133    1.000000    
--------------------------------------------------------------------------------


  Constraints : 

--------------------------------------------------------------------------------
  Constraint no.      Unconstrained     Constrained    Coefficient    Offset
                         Variable         Variable
--------------------------------------------------------------------------------
           1              Strain 1        Strain 2       1.00000      0.0000
           2                 4 x             4 y         1.00000      0.5000
           3                 6 x             6 y         1.00000      0.5000
--------------------------------------------------------------------------------


********************************************************************************
*  General input information                                                   *
********************************************************************************

  Species output for all configurations : 

--------------------------------------------------------------------------------
  Species    Type    Atomic    Atomic    Charge       Radii (Angs)     Library
                     Number     Mass       (e)     Cova   Ionic  VDW   Symbol
--------------------------------------------------------------------------------
    K        Core       19      39.10   0.500000   1.330  0.000  2.800          
    Zn       Core       30      65.39   2.000000   1.450  0.000  2.160          
    F        Core        9      19.00   0.378000   0.710  0.000  1.300          
    F        Shell       9       0.00  -1.211333   0.710  0.000  1.300          
--------------------------------------------------------------------------------


  Lattice summation method               =    Ewald          (3-D)
                                         =    Parry          (2-D)
                                         =    Saunders et al (1-D)
  Accuracy factor for lattice sums       =   12.000


  Time limit = Infinity

  Maximum range for interatomic potentials =    100000.000000 Angstroms

  General interatomic potentials :

--------------------------------------------------------------------------------
Atom  Types   Potential         A         B         C         D     Cutoffs(Ang)
  1     2                                                            Min    Max 
--------------------------------------------------------------------------------
K    c K    c Buckingham    0.219E+04 0.192      0.00      0.00     0.000 10.000
Zn   c F    s Buckingham    0.148E+04 0.266      0.00      0.00     0.000 10.000
F    s F    s Buckingham     912.     0.271      40.0      0.00     0.000 10.000
K    c F    s Buckingham    0.352E+04 0.267      0.00      0.00     0.000 10.000
F    c F    s Spring (c-s)   18.8      0.00      0.00      0.00     0.000  0.800
--------------------------------------------------------------------------------

********************************************************************************
*  Output for configuration   1                                                *
********************************************************************************


  Components of energy : 

--------------------------------------------------------------------------------
  Interatomic potentials     =         157.52996919 eV
  Monopole - monopole (real) =         -34.83456284 eV
  Monopole - monopole (recip)=         -52.91253319 eV
  Monopole - monopole (total)=         -87.74709603 eV
--------------------------------------------------------------------------------
  Total lattice energy       =          69.78287315 eV
--------------------------------------------------------------------------------
  Total lattice energy       =            6732.9805 kJ/(mole unit cells)
--------------------------------------------------------------------------------


  Number of variables =        4

  Maximum number of calculations  =          1000
  Maximum Hessian update interval =            10
  Maximum step size               =   1.000000000
  Maximum parameter tolerance     =   0.000010000
  Maximum function  tolerance     =   0.000010000
  Maximum gradient  tolerance     =   0.001000000
  Maximum gradient  component     =   0.010000000

  Symmetry constrained optimisation

  Symmetry used for second derivatives

  Cell parameters to be optimised using strains

  Newton-Raphson optimiser to be used

  BFGS hessian update to be used

  Start of bulk optimisation :

  Cycle:      0 Energy:        69.782873  Gnorm:    206.402996  CPU:    0.005
  ** Hessian calculated **
  Cycle:      1 Energy:       -54.547167  Gnorm:     31.108128  CPU:    0.012
  ** Hessian calculated **
  Cycle:      2 Energy:       -56.305758  Gnorm:     12.624625  CPU:    0.018
  ** Hessian calculated **
  Cycle:      3 Energy:       -56.472599  Gnorm:      4.818865  CPU:    0.023
  Cycle:      4 Energy:       -56.602433  Gnorm:      4.403291  CPU:    0.027
  Cycle:      5 Energy:       -56.835094  Gnorm:      4.476390  CPU:    0.031
  Cycle:      6 Energy:       -57.034498  Gnorm:      3.543897  CPU:    0.035
  Cycle:      7 Energy:       -57.232132  Gnorm:      3.219989  CPU:    0.039
  Cycle:      8 Energy:       -57.297959  Gnorm:      4.033105  CPU:    0.043
  Cycle:      9 Energy:       -57.309749  Gnorm:      0.317883  CPU:    0.046
  Cycle:     10 Energy:       -57.310307  Gnorm:      0.332393  CPU:    0.049
  Cycle:     11 Energy:       -57.310380  Gnorm:      0.026210  CPU:    0.053
  Cycle:     12 Energy:       -57.310390  Gnorm:      0.017463  CPU:    0.056
  ** Hessian calculated **
  Cycle:     13 Energy:       -57.310390  Gnorm:      0.002677  CPU:    0.061
  Cycle:     14 Energy:       -57.310390  Gnorm:      0.002822  CPU:    0.064


  **** Optimisation achieved ****


  Final energy =     -57.31039027 eV
  Final Gnorm  =       0.00023694

  Components of energy : 

--------------------------------------------------------------------------------
  Interatomic potentials     =           8.49413966 eV
  Monopole - monopole (real) =         -16.64939939 eV
  Monopole - monopole (recip)=         -49.15513054 eV
  Monopole - monopole (total)=         -65.80452993 eV
--------------------------------------------------------------------------------
  Total lattice energy       =         -57.31039027 eV
--------------------------------------------------------------------------------
  Total lattice energy       =           -5529.5766 kJ/(mole unit cells)
--------------------------------------------------------------------------------

  Final asymmetric unit coordinates :

--------------------------------------------------------------------------------
   No.  Atomic        x           y           z         Radius
        Label       (Frac)      (Frac)      (Frac)       (Angs) 
--------------------------------------------------------------------------------
     1  K     c     0.000000    0.000000    0.000000    0.000000
     2  Zn    c     0.000000    0.500000    0.000000    0.000000
     3  F     c     0.000000    0.500000    0.500000    0.000000
     4  F     c     0.309324    0.809324    0.000000    0.000000
     5  F     s     0.000000    0.500000    0.500000    0.000000
     6  F     s     0.316411    0.816411    0.000000    0.000000
--------------------------------------------------------------------------------

  Final Cartesian lattice vectors (Angstroms) :

        7.409315    0.000000    0.000000
        0.000000    7.409315    0.000000
        0.000000    0.000000    3.939447


  Final cell parameters and derivatives :

--------------------------------------------------------------------------------
       a            7.409315 Angstrom     dE/de1(xx)    -0.000247 eV/strain
       b            7.409315 Angstrom     dE/de2(yy)     0.000000 eV/strain
       c            3.939447 Angstrom     dE/de3(zz)    -0.000001 eV/strain
       alpha       90.000000 Degrees      dE/de4(yz)     0.000000 eV/strain
       beta        90.000000 Degrees      dE/de5(xz)     0.000000 eV/strain
       gamma       90.000000 Degrees      dE/de6(xy)     0.000000 eV/strain
--------------------------------------------------------------------------------

  Primitive cell volume =           216.267573 Angs**3

  Density of cell =      2.479935 g/cm**3

  Non-primitive cell volume =           216.267573 Angs**3


  Final internal derivatives :

--------------------------------------------------------------------------------
   No.  Atomic          a             b             c           Radius
        Label          (eV)          (eV)          (eV)        (eV/Angs)
--------------------------------------------------------------------------------
      1 K     c       0.000000      0.000000      0.000000      0.000000
      2 Zn    c       0.000000      0.000000      0.000000      0.000000
      3 F     c       0.000000      0.000000      0.000000      0.000000
      4 F     c      -0.000214      0.000000      0.000000      0.000000
      5 F     s       0.000000      0.000000      0.000000      0.000000
      6 F     s       0.000890      0.000000      0.000000      0.000000
--------------------------------------------------------------------------------
  Maximum abs         0.000890      0.000000      0.000000      0.000000
--------------------------------------------------------------------------------


  Born effective charge tensors : 

-------------------------------------------------------------------------------
  Atom             x           y             z
-------------------------------------------------------------------------------
   1 K     x       0.4115      0.0004      0.0000
           y      -0.0004      0.4115      0.0000
           z       0.0000      0.0000      0.5072
-------------------------------------------------------------------------------
   2 Zn    x       1.4636      0.3091      0.0000
           y       0.3091      1.4636      0.0000
           z       0.0000      0.0000      1.4810
-------------------------------------------------------------------------------
   3 F     x      -0.6381     -0.0101      0.0000
           y      -0.0101     -0.6381      0.0000
           z       0.0000      0.0000     -0.5172
-------------------------------------------------------------------------------
   4 F     x      -0.6185     -0.0161      0.0000
           y      -0.0161     -0.6185      0.0000
           z       0.0000      0.0000     -0.7355
-------------------------------------------------------------------------------




  Elastic Constant Matrix: (Units=GPa)

-------------------------------------------------------------------------------
  Indices      1         2         3         4         5         6    
-------------------------------------------------------------------------------
       1     30.7832    4.8561   -1.6300    0.0000    0.0000    0.0000
       2      4.8561   30.7832   -1.6300    0.0000    0.0000    0.0000
       3     -1.6300   -1.6300  100.2696    0.0000    0.0000    0.0000
       4      0.0000    0.0000    0.0000   -0.1387    0.0000    0.0000
       5      0.0000    0.0000    0.0000    0.0000   -0.1387    0.0000
       6      0.0000    0.0000    0.0000    0.0000    0.0000   -0.5566
-------------------------------------------------------------------------------


  Elastic Compliance Matrix: (Units=1/GPa)

-------------------------------------------------------------------------------
  Indices      1         2         3         4         5         6    
-------------------------------------------------------------------------------
       1    0.033335 -0.005235  0.000457  0.000000  0.000000  0.000000
       2   -0.005235  0.033335  0.000457  0.000000  0.000000  0.000000
       3    0.000457  0.000457  0.009988  0.000000  0.000000  0.000000
       4    0.000000  0.000000  0.000000 -7.210126  0.000000  0.000000
       5    0.000000  0.000000  0.000000  0.000000 -7.210126  0.000000
       6    0.000000  0.000000  0.000000  0.000000  0.000000 -1.796624
-------------------------------------------------------------------------------

  Mechanical properties :

-------------------------------------------------------------------------------
  Convention :                    Reuss         Voigt         Hill
-------------------------------------------------------------------------------
  Bulk  Modulus (GPa)     =      14.70229      18.33647      16.51938
  Shear Modulus (GPa)     =      -0.31039      10.51586       5.10273
-------------------------------------------------------------------------------
  Velocity S-wave (km/s)  =      -0.35378       2.05922       1.43444
  Velocity P-wave (km/s)  =       2.40034       3.61217       3.06671
-------------------------------------------------------------------------------
  Compressibility (1/GPa) =    0.06801660
-------------------------------------------------------------------------------
  Stress axis :                     x             y             z
-------------------------------------------------------------------------------
  Youngs Moduli (GPa)     =      29.99829      29.99829     100.12052
-------------------------------------------------------------------------------
  Poissons Ratio (x)      =                     0.15703      -0.04574
  Poissons Ratio (y)      =       0.15703                    -0.04574
  Poissons Ratio (z)      =      -0.01370      -0.01370
-------------------------------------------------------------------------------


  Piezoelectric Strain Matrix: (Units=C/m**2)

-------------------------------------------------------------------------------
  Indices      1         2         3         4         5         6    
-------------------------------------------------------------------------------
       x     0.00000   0.00000   0.00000   0.00000   0.00000   0.00000
       y     0.00000   0.00000   0.00000   0.00000   0.00000   0.00000
       z     0.00000   0.00000   0.00000   0.00000   0.00000   0.00000
-------------------------------------------------------------------------------


  Piezoelectric Stress Matrix: (Units=10**-11 C/N)

-------------------------------------------------------------------------------
  Indices      1         2         3         4         5         6    
-------------------------------------------------------------------------------
       x     0.00000   0.00000   0.00000   0.00000   0.00000   0.00000
       y     0.00000   0.00000   0.00000   0.00000   0.00000   0.00000
       z     0.00000   0.00000   0.00000   0.00000   0.00000   0.00000
-------------------------------------------------------------------------------


  Static dielectric constant tensor : 

-------------------------------------------------------------------------------
              x         y         z
-------------------------------------------------------------------------------
       x     2.87527   0.00000   0.00000
       y     0.00000   2.87527   0.00000
       z     0.00000   0.00000   2.20764
--------------------------------------------------------------------------------

  High frequency dielectric constant tensor : 

-------------------------------------------------------------------------------
              x         y         z
-------------------------------------------------------------------------------
       x     1.33520   0.00000   0.00000
       y     0.00000   1.33520   0.00000
       z     0.00000   0.00000   1.35739
-------------------------------------------------------------------------------

  Static refractive indices : 

-------------------------------------------------------------------------------
    1 =    1.48581      2 =    1.69566      3 =    1.69566
-------------------------------------------------------------------------------

  High frequency refractive indices : 

-------------------------------------------------------------------------------
    1 =    1.15551      2 =    1.15551      3 =    1.16507
-------------------------------------------------------------------------------


  Time to end of optimisation =       0.0724 seconds


  Peak dynamic memory used =       0.59 MB 


  Timing analysis for GULP :

--------------------------------------------------------------------------------
  Task / Subroutine                                          Time (Seconds)
--------------------------------------------------------------------------------
  Calculation of reciprocal space energy and derivatives          0.0010
  Calculation of reciprocal space energy using symmetry           0.0064
  Calculation of real space energy and derivatives                0.0038
  Calculation of real space energy using symmetry                 0.0568
  Symmetry generation of equivalent positions                     0.0005
--------------------------------------------------------------------------------
  Total CPU time                                                  0.0725
--------------------------------------------------------------------------------


  CIF file written as perov.cif                                               


  Job Finished at 14:08.38  6th April      2017                               

