********************************************************************************
*                       GENERAL UTILITY LATTICE PROGRAM                        *
*                                 Julian Gale                                  *
*                      Nanochemistry Research Institute                        *
*                           Department of Chemistry                            *
*                    Curtin University, Western Australia                      *
********************************************************************************
* Version = 4.3.2 * Last modified =  3rd March 2015                            *
********************************************************************************
*  optimise     - perform optimisation run                                     *
*  conp         - constant pressure calculation                                *
*  property     - calculate properties for final geometry                      *
********************************************************************************

  Job Started  at 14:08.43  6th April      2017                               

  Number of CPUs =     1


  Total number of configurations input =   1

********************************************************************************
*  Input for Configuration =   1                                               *
********************************************************************************

  Formula = K2Zn2F6                                                     

  Number of irreducible atoms/shells =       6


  Total number atoms/shells =      16

  Dimensionality = 3               :  Bulk   


  Symmetry :

  Crystal family                   :  Tetragonal  
  Crystal class  (Groth - 1921)    :  Ditetragonal Dipyramidal             

  Space group (centrosymmetric)    :  P 4/M B M       

  Patterson group                  :  P 4/m m m

  Cartesian lattice vectors (Angstroms) :

        4.200000    0.000000    0.000000
        0.000000    4.200000    0.000000
        0.000000    0.000000    4.200000

  Cell parameters (Angstroms/Degrees):

  a =       4.2000    alpha =  90.0000
  b =       4.2000    beta  =  90.0000
  c =       4.2000    gamma =  90.0000

  Initial cell volume =          74.088000 Angs**3

  Temperature of configuration =  0.000     K 

  Pressure of configuration =         0.000 GPa 

  Fractional coordinates of asymmetric unit :

--------------------------------------------------------------------------------
   No.  Atomic       x           y          z         Charge      Occupancy
        Label      (Frac)      (Frac)     (Frac)        (e)         (Frac)  
--------------------------------------------------------------------------------
      1 K     c    0.000000    0.000000    0.000000     1.20000    1.000000    
      2 Zn    c    0.000000    0.500000    0.000000     1.80000    1.000000    
      3 F     c    0.000000    0.500000    0.500000     0.37800    1.000000    
      4 F     c    0.227100 *  0.727100    0.000000     0.37800    1.000000    
      5 F     s    0.000000    0.500000    0.500000    -1.37800    1.000000    
      6 F     s    0.227100 *  0.727100    0.000000    -1.37800    1.000000    
--------------------------------------------------------------------------------


  Constraints : 

--------------------------------------------------------------------------------
  Constraint no.      Unconstrained     Constrained    Coefficient    Offset
                         Variable         Variable
--------------------------------------------------------------------------------
           1              Strain 1        Strain 2       1.00000      0.0000
           2                 4 x             4 y         1.00000      0.5000
           3                 6 x             6 y         1.00000      0.5000
--------------------------------------------------------------------------------


********************************************************************************
*  General input information                                                   *
********************************************************************************

  Species output for all configurations : 

--------------------------------------------------------------------------------
  Species    Type    Atomic    Atomic    Charge       Radii (Angs)     Library
                     Number     Mass       (e)     Cova   Ionic  VDW   Symbol
--------------------------------------------------------------------------------
    K        Core       19      39.10   1.200000   1.330  0.000  2.800          
    Zn       Core       30      65.39   1.800000   1.450  0.000  2.160          
    F        Core        9      19.00   0.378000   0.710  0.000  1.300          
    F        Shell       9       0.00  -1.378000   0.710  0.000  1.300          
--------------------------------------------------------------------------------


  Lattice summation method               =    Ewald          (3-D)
                                         =    Parry          (2-D)
                                         =    Saunders et al (1-D)
  Accuracy factor for lattice sums       =   12.000


  Time limit = Infinity

  Maximum range for interatomic potentials =    100000.000000 Angstroms

  General interatomic potentials :

--------------------------------------------------------------------------------
Atom  Types   Potential         A         B         C         D     Cutoffs(Ang)
  1     2                                                            Min    Max 
--------------------------------------------------------------------------------
K    c K    c Buckingham    0.219E+04 0.192      0.00      0.00     0.000 10.000
Zn   c F    s Buckingham    0.148E+04 0.266      0.00      0.00     0.000 10.000
F    s F    s Buckingham     912.     0.271      40.0      0.00     0.000 10.000
K    c F    s Buckingham    0.352E+04 0.267      0.00      0.00     0.000 10.000
F    c F    s Spring (c-s)   24.3      0.00      0.00      0.00     0.000  0.800
--------------------------------------------------------------------------------

********************************************************************************
*  Output for configuration   1                                                *
********************************************************************************


  Components of energy : 

--------------------------------------------------------------------------------
  Interatomic potentials     =         157.52996919 eV
  Monopole - monopole (real) =         -44.90907413 eV
  Monopole - monopole (recip)=         -63.86482843 eV
  Monopole - monopole (total)=        -108.77390256 eV
--------------------------------------------------------------------------------
  Total lattice energy       =          48.75606663 eV
--------------------------------------------------------------------------------
  Total lattice energy       =            4704.2151 kJ/(mole unit cells)
--------------------------------------------------------------------------------


  Number of variables =        4

  Maximum number of calculations  =          1000
  Maximum Hessian update interval =            10
  Maximum step size               =   1.000000000
  Maximum parameter tolerance     =   0.000010000
  Maximum function  tolerance     =   0.000010000
  Maximum gradient  tolerance     =   0.001000000
  Maximum gradient  component     =   0.010000000

  Symmetry constrained optimisation

  Symmetry used for second derivatives

  Cell parameters to be optimised using strains

  Newton-Raphson optimiser to be used

  BFGS hessian update to be used

  Start of bulk optimisation :

  Cycle:      0 Energy:        48.756067  Gnorm:    203.360575  CPU:    0.005
  ** Hessian calculated **
  Cycle:      1 Energy:       -69.106784  Gnorm:     24.552308  CPU:    0.012
  ** Hessian calculated **
  Cycle:      2 Energy:       -70.424956  Gnorm:      5.529688  CPU:    0.018
  Cycle:      3 Energy:       -70.527551  Gnorm:      1.608526  CPU:    0.021
  Cycle:      4 Energy:       -70.539728  Gnorm:      0.681763  CPU:    0.025
  Cycle:      5 Energy:       -70.540159  Gnorm:      0.247025  CPU:    0.029
  Cycle:      6 Energy:       -70.540232  Gnorm:      0.053071  CPU:    0.032
  Cycle:      7 Energy:       -70.540235  Gnorm:      0.015364  CPU:    0.035


  **** Optimisation achieved ****


  Final energy =     -70.54023561 eV
  Final Gnorm  =       0.00058179

  Components of energy : 

--------------------------------------------------------------------------------
  Interatomic potentials     =           9.45820422 eV
  Monopole - monopole (real) =         -16.81615487 eV
  Monopole - monopole (recip)=         -63.18228496 eV
  Monopole - monopole (total)=         -79.99843983 eV
--------------------------------------------------------------------------------
  Total lattice energy       =         -70.54023561 eV
--------------------------------------------------------------------------------
  Total lattice energy       =           -6806.0544 kJ/(mole unit cells)
--------------------------------------------------------------------------------

  Final asymmetric unit coordinates :

--------------------------------------------------------------------------------
   No.  Atomic        x           y           z         Radius
        Label       (Frac)      (Frac)      (Frac)       (Angs) 
--------------------------------------------------------------------------------
     1  K     c     0.000000    0.000000    0.000000    0.000000
     2  Zn    c     0.000000    0.500000    0.000000    0.000000
     3  F     c     0.000000    0.500000    0.500000    0.000000
     4  F     c     0.223766    0.723766    0.000000    0.000000
     5  F     s     0.000000    0.500000    0.500000    0.000000
     6  F     s     0.221603    0.721603    0.000000    0.000000
--------------------------------------------------------------------------------

  Final Cartesian lattice vectors (Angstroms) :

        6.684298    0.000000    0.000000
        0.000000    6.684298    0.000000
        0.000000    0.000000    3.883784


  Final cell parameters and derivatives :

--------------------------------------------------------------------------------
       a            6.684298 Angstrom     dE/de1(xx)     0.000662 eV/strain
       b            6.684298 Angstrom     dE/de2(yy)     0.000000 eV/strain
       c            3.883784 Angstrom     dE/de3(zz)     0.000537 eV/strain
       alpha       90.000000 Degrees      dE/de4(yz)     0.000000 eV/strain
       beta        90.000000 Degrees      dE/de5(xz)     0.000000 eV/strain
       gamma       90.000000 Degrees      dE/de6(xy)     0.000000 eV/strain
--------------------------------------------------------------------------------

  Primitive cell volume =           173.526882 Angs**3

  Density of cell =      3.090757 g/cm**3

  Non-primitive cell volume =           173.526882 Angs**3


  Final internal derivatives :

--------------------------------------------------------------------------------
   No.  Atomic          a             b             c           Radius
        Label          (eV)          (eV)          (eV)        (eV/Angs)
--------------------------------------------------------------------------------
      1 K     c       0.000000      0.000000      0.000000      0.000000
      2 Zn    c       0.000000      0.000000      0.000000      0.000000
      3 F     c       0.000000      0.000000      0.000000      0.000000
      4 F     c       0.002135      0.000000      0.000000      0.000000
      5 F     s       0.000000      0.000000      0.000000      0.000000
      6 F     s       0.000363      0.000000      0.000000      0.000000
--------------------------------------------------------------------------------
  Maximum abs         0.002135      0.000000      0.000000      0.000000
--------------------------------------------------------------------------------


  Born effective charge tensors : 

-------------------------------------------------------------------------------
  Atom             x           y             z
-------------------------------------------------------------------------------
   1 K     x       0.9670     -0.0053      0.0000
           y       0.0053      0.9670      0.0000
           z       0.0000      0.0000      1.1916
-------------------------------------------------------------------------------
   2 Zn    x       1.6881     -0.1493      0.0000
           y      -0.1493      1.6881      0.0000
           z       0.0000      0.0000      1.2062
-------------------------------------------------------------------------------
   3 F     x      -0.9072      0.0092      0.0000
           y       0.0092     -0.9072      0.0000
           z       0.0000      0.0000     -0.6729
-------------------------------------------------------------------------------
   4 F     x      -0.8740     -0.2302      0.0000
           y      -0.2302     -0.8740      0.0000
           z       0.0000      0.0000     -0.8625
-------------------------------------------------------------------------------




  Elastic Constant Matrix: (Units=GPa)

-------------------------------------------------------------------------------
  Indices      1         2         3         4         5         6    
-------------------------------------------------------------------------------
       1     96.7821   28.4631   -4.4995    0.0000    0.0000    0.0000
       2     28.4631   96.7821   -4.4995    0.0000    0.0000    0.0000
       3     -4.4995   -4.4995  134.0065    0.0000    0.0000    0.0000
       4      0.0000    0.0000    0.0000    1.1299    0.0000    0.0000
       5      0.0000    0.0000    0.0000    0.0000    1.1299    0.0000
       6      0.0000    0.0000    0.0000    0.0000    0.0000   31.6937
-------------------------------------------------------------------------------


  Elastic Compliance Matrix: (Units=1/GPa)

-------------------------------------------------------------------------------
  Indices      1         2         3         4         5         6    
-------------------------------------------------------------------------------
       1    0.011320 -0.003317  0.000269  0.000000  0.000000  0.000000
       2   -0.003317  0.011320  0.000269  0.000000  0.000000  0.000000
       3    0.000269  0.000269  0.007480  0.000000  0.000000  0.000000
       4    0.000000  0.000000  0.000000  0.885037  0.000000  0.000000
       5    0.000000  0.000000  0.000000  0.000000  0.885037  0.000000
       6    0.000000  0.000000  0.000000  0.000000  0.000000  0.031552
-------------------------------------------------------------------------------

  Mechanical properties :

-------------------------------------------------------------------------------
  Convention :                    Reuss         Voigt         Hill
-------------------------------------------------------------------------------
  Bulk  Modulus (GPa)     =      40.71228      40.72210      40.71719
  Shear Modulus (GPa)     =       2.70930      27.33113      15.02022
-------------------------------------------------------------------------------
  Velocity S-wave (km/s)  =       0.93626       2.97369       2.20448
  Velocity P-wave (km/s)  =       3.78696       4.99659       4.43323
-------------------------------------------------------------------------------
  Compressibility (1/GPa) =    0.02456261
-------------------------------------------------------------------------------
  Stress axis :                     x             y             z
-------------------------------------------------------------------------------
  Youngs Moduli (GPa)     =      88.33586      88.33586     133.68323
-------------------------------------------------------------------------------
  Poissons Ratio (x)      =                     0.29299      -0.03593
  Poissons Ratio (y)      =       0.29299                    -0.03593
  Poissons Ratio (z)      =      -0.02374      -0.02374
-------------------------------------------------------------------------------


  Piezoelectric Strain Matrix: (Units=C/m**2)

-------------------------------------------------------------------------------
  Indices      1         2         3         4         5         6    
-------------------------------------------------------------------------------
       x     0.00000   0.00000   0.00000   0.00000   0.00000   0.00000
       y     0.00000   0.00000   0.00000   0.00000   0.00000   0.00000
       z     0.00000   0.00000   0.00000   0.00000   0.00000   0.00000
-------------------------------------------------------------------------------


  Piezoelectric Stress Matrix: (Units=10**-11 C/N)

-------------------------------------------------------------------------------
  Indices      1         2         3         4         5         6    
-------------------------------------------------------------------------------
       x     0.00000   0.00000   0.00000   0.00000   0.00000   0.00000
       y     0.00000   0.00000   0.00000   0.00000   0.00000   0.00000
       z     0.00000   0.00000   0.00000   0.00000   0.00000   0.00000
-------------------------------------------------------------------------------


  Static dielectric constant tensor : 

-------------------------------------------------------------------------------
              x         y         z
-------------------------------------------------------------------------------
       x     0.54159   0.00000   0.00000
       y     0.00000   0.54159   0.00000
       z     0.00000   0.00000   0.93324
--------------------------------------------------------------------------------

  High frequency dielectric constant tensor : 

-------------------------------------------------------------------------------
              x         y         z
-------------------------------------------------------------------------------
       x     1.46883   0.00000   0.00000
       y     0.00000   1.46883   0.00000
       z     0.00000   0.00000   1.43886
-------------------------------------------------------------------------------

  Static refractive indices : 

-------------------------------------------------------------------------------
    1 =    0.73593      2 =    0.73593      3 =    0.96605
-------------------------------------------------------------------------------

  High frequency refractive indices : 

-------------------------------------------------------------------------------
    1 =    1.19952      2 =    1.21195      3 =    1.21195
-------------------------------------------------------------------------------


  Time to end of optimisation =       0.0437 seconds


  Peak dynamic memory used =       0.59 MB 


  Timing analysis for GULP :

--------------------------------------------------------------------------------
  Task / Subroutine                                          Time (Seconds)
--------------------------------------------------------------------------------
  Calculation of reciprocal space energy and derivatives          0.0009
  Calculation of reciprocal space energy using symmetry           0.0035
  Calculation of real space energy and derivatives                0.0038
  Calculation of real space energy using symmetry                 0.0316
  Symmetry generation of equivalent positions                     0.0004
--------------------------------------------------------------------------------
  Total CPU time                                                  0.0437
--------------------------------------------------------------------------------


  CIF file written as perov.cif                                               


  Job Finished at 14:08.43  6th April      2017                               

