********************************************************************************
*                       GENERAL UTILITY LATTICE PROGRAM                        *
*                                 Julian Gale                                  *
*                      Nanochemistry Research Institute                        *
*                           Department of Chemistry                            *
*                    Curtin University, Western Australia                      *
********************************************************************************
* Version = 4.3.2 * Last modified =  3rd March 2015                            *
********************************************************************************
*  optimise     - perform optimisation run                                     *
*  conp         - constant pressure calculation                                *
*  property     - calculate properties for final geometry                      *
********************************************************************************

  Job Started  at 14:08.44  6th April      2017                               

  Number of CPUs =     1


  Total number of configurations input =   1

********************************************************************************
*  Input for Configuration =   1                                               *
********************************************************************************

  Formula = K2Zn2F6                                                     

  Number of irreducible atoms/shells =       6


  Total number atoms/shells =      16

  Dimensionality = 3               :  Bulk   


  Symmetry :

  Crystal family                   :  Tetragonal  
  Crystal class  (Groth - 1921)    :  Ditetragonal Dipyramidal             

  Space group (centrosymmetric)    :  P 4/M B M       

  Patterson group                  :  P 4/m m m

  Cartesian lattice vectors (Angstroms) :

        4.200000    0.000000    0.000000
        0.000000    4.200000    0.000000
        0.000000    0.000000    4.200000

  Cell parameters (Angstroms/Degrees):

  a =       4.2000    alpha =  90.0000
  b =       4.2000    beta  =  90.0000
  c =       4.2000    gamma =  90.0000

  Initial cell volume =          74.088000 Angs**3

  Temperature of configuration =  0.000     K 

  Pressure of configuration =         0.000 GPa 

  Fractional coordinates of asymmetric unit :

--------------------------------------------------------------------------------
   No.  Atomic       x           y          z         Charge      Occupancy
        Label      (Frac)      (Frac)     (Frac)        (e)         (Frac)  
--------------------------------------------------------------------------------
      1 K     c    0.000000    0.000000    0.000000     1.30000    1.000000    
      2 Zn    c    0.000000    0.500000    0.000000     2.30000    1.000000    
      3 F     c    0.000000    0.500000    0.500000     0.37800    1.000000    
      4 F     c    0.227100 *  0.727100    0.000000     0.37800    1.000000    
      5 F     s    0.000000    0.500000    0.500000    -1.57800    1.000000    
      6 F     s    0.227100 *  0.727100    0.000000    -1.57800    1.000000    
--------------------------------------------------------------------------------


  Constraints : 

--------------------------------------------------------------------------------
  Constraint no.      Unconstrained     Constrained    Coefficient    Offset
                         Variable         Variable
--------------------------------------------------------------------------------
           1              Strain 1        Strain 2       1.00000      0.0000
           2                 4 x             4 y         1.00000      0.5000
           3                 6 x             6 y         1.00000      0.5000
--------------------------------------------------------------------------------


********************************************************************************
*  General input information                                                   *
********************************************************************************

  Species output for all configurations : 

--------------------------------------------------------------------------------
  Species    Type    Atomic    Atomic    Charge       Radii (Angs)     Library
                     Number     Mass       (e)     Cova   Ionic  VDW   Symbol
--------------------------------------------------------------------------------
    K        Core       19      39.10   1.300000   1.330  0.000  2.800          
    Zn       Core       30      65.39   2.300000   1.450  0.000  2.160          
    F        Core        9      19.00   0.378000   0.710  0.000  1.300          
    F        Shell       9       0.00  -1.578000   0.710  0.000  1.300          
--------------------------------------------------------------------------------


  Lattice summation method               =    Ewald          (3-D)
                                         =    Parry          (2-D)
                                         =    Saunders et al (1-D)
  Accuracy factor for lattice sums       =   12.000


  Time limit = Infinity

  Maximum range for interatomic potentials =    100000.000000 Angstroms

  General interatomic potentials :

--------------------------------------------------------------------------------
Atom  Types   Potential         A         B         C         D     Cutoffs(Ang)
  1     2                                                            Min    Max 
--------------------------------------------------------------------------------
K    c K    c Buckingham    0.219E+04 0.192      0.00      0.00     0.000 10.000
Zn   c F    s Buckingham    0.148E+04 0.266      0.00      0.00     0.000 10.000
F    s F    s Buckingham     912.     0.271      40.0      0.00     0.000 10.000
K    c F    s Buckingham    0.352E+04 0.267      0.00      0.00     0.000 10.000
F    c F    s Spring (c-s)   31.9      0.00      0.00      0.00     0.000  0.800
--------------------------------------------------------------------------------

********************************************************************************
*  Output for configuration   1                                                *
********************************************************************************


  Components of energy : 

--------------------------------------------------------------------------------
  Interatomic potentials     =         157.52996919 eV
  Monopole - monopole (real) =         -65.71347672 eV
  Monopole - monopole (recip)=         -94.04658451 eV
  Monopole - monopole (total)=        -159.76006124 eV
--------------------------------------------------------------------------------
  Total lattice energy       =          -2.23009205 eV
--------------------------------------------------------------------------------
  Total lattice energy       =            -215.1698 kJ/(mole unit cells)
--------------------------------------------------------------------------------


  Number of variables =        4

  Maximum number of calculations  =          1000
  Maximum Hessian update interval =            10
  Maximum step size               =   1.000000000
  Maximum parameter tolerance     =   0.000010000
  Maximum function  tolerance     =   0.000010000
  Maximum gradient  tolerance     =   0.001000000
  Maximum gradient  component     =   0.010000000

  Symmetry constrained optimisation

  Symmetry used for second derivatives

  Cell parameters to be optimised using strains

  Newton-Raphson optimiser to be used

  BFGS hessian update to be used

  Start of bulk optimisation :

  Cycle:      0 Energy:        -2.230092  Gnorm:    190.987934  CPU:    0.005
  ** Hessian calculated **
  Cycle:      1 Energy:      -102.548806  Gnorm:     31.037737  CPU:    0.012
  ** Hessian calculated **
  Cycle:      2 Energy:      -109.576587  Gnorm:     10.203581  CPU:    0.018
  Cycle:      3 Energy:      -110.314413  Gnorm:      8.507583  CPU:    0.021
  Cycle:      4 Energy:      -110.371583  Gnorm:      2.042768  CPU:    0.024
  Cycle:      5 Energy:      -110.379190  Gnorm:      0.536445  CPU:    0.027
  Cycle:      6 Energy:      -110.381089  Gnorm:      0.322471  CPU:    0.030
  Cycle:      7 Energy:      -110.381241  Gnorm:      0.053537  CPU:    0.033
  Cycle:      8 Energy:      -110.381254  Gnorm:      0.032335  CPU:    0.037
  Cycle:      9 Energy:      -110.381255  Gnorm:      0.003100  CPU:    0.040
  Cycle:     10 Energy:      -110.381255  Gnorm:      0.001383  CPU:    0.043


  **** Optimisation achieved ****


  Final energy =    -110.38125529 eV
  Final Gnorm  =       0.00022491

  Components of energy : 

--------------------------------------------------------------------------------
  Interatomic potentials     =          16.72640061 eV
  Monopole - monopole (real) =         -33.81111403 eV
  Monopole - monopole (recip)=         -93.29654187 eV
  Monopole - monopole (total)=        -127.10765590 eV
--------------------------------------------------------------------------------
  Total lattice energy       =        -110.38125529 eV
--------------------------------------------------------------------------------
  Total lattice energy       =          -10650.1038 kJ/(mole unit cells)
--------------------------------------------------------------------------------

  Final asymmetric unit coordinates :

--------------------------------------------------------------------------------
   No.  Atomic        x           y           z         Radius
        Label       (Frac)      (Frac)      (Frac)       (Angs) 
--------------------------------------------------------------------------------
     1  K     c     0.000000    0.000000    0.000000    0.000000
     2  Zn    c     0.000000    0.500000    0.000000    0.000000
     3  F     c     0.000000    0.500000    0.500000    0.000000
     4  F     c     0.206966    0.706966    0.000000    0.000000
     5  F     s     0.000000    0.500000    0.500000    0.000000
     6  F     s     0.202739    0.702739    0.000000    0.000000
--------------------------------------------------------------------------------

  Final Cartesian lattice vectors (Angstroms) :

        6.438516    0.000000    0.000000
        0.000000    6.438516    0.000000
        0.000000    0.000000    3.586494


  Final cell parameters and derivatives :

--------------------------------------------------------------------------------
       a            6.438516 Angstrom     dE/de1(xx)     0.000245 eV/strain
       b            6.438516 Angstrom     dE/de2(yy)     0.000000 eV/strain
       c            3.586494 Angstrom     dE/de3(zz)     0.000015 eV/strain
       alpha       90.000000 Degrees      dE/de4(yz)     0.000000 eV/strain
       beta        90.000000 Degrees      dE/de5(xz)     0.000000 eV/strain
       gamma       90.000000 Degrees      dE/de6(xy)     0.000000 eV/strain
--------------------------------------------------------------------------------

  Primitive cell volume =           148.676286 Angs**3

  Density of cell =      3.607364 g/cm**3

  Non-primitive cell volume =           148.676286 Angs**3


  Final internal derivatives :

--------------------------------------------------------------------------------
   No.  Atomic          a             b             c           Radius
        Label          (eV)          (eV)          (eV)        (eV/Angs)
--------------------------------------------------------------------------------
      1 K     c       0.000000      0.000000      0.000000      0.000000
      2 Zn    c       0.000000      0.000000      0.000000      0.000000
      3 F     c       0.000000      0.000000      0.000000      0.000000
      4 F     c       0.000711      0.000000      0.000000      0.000000
      5 F     s       0.000000      0.000000      0.000000      0.000000
      6 F     s      -0.000493      0.000000      0.000000      0.000000
--------------------------------------------------------------------------------
  Maximum abs         0.000711      0.000000      0.000000      0.000000
--------------------------------------------------------------------------------


  Born effective charge tensors : 

-------------------------------------------------------------------------------
  Atom             x           y             z
-------------------------------------------------------------------------------
   1 K     x       1.0814     -0.0030      0.0000
           y       0.0030      1.0814      0.0000
           z       0.0000      0.0000      1.2979
-------------------------------------------------------------------------------
   2 Zn    x       1.8894     -0.3064      0.0000
           y      -0.3064      1.8894      0.0000
           z       0.0000      0.0000      1.5371
-------------------------------------------------------------------------------
   3 F     x      -1.0111      0.0181      0.0000
           y       0.0181     -1.0111      0.0000
           z       0.0000      0.0000     -0.7901
-------------------------------------------------------------------------------
   4 F     x      -0.9798     -0.1922      0.0000
           y      -0.1922     -0.9798      0.0000
           z       0.0000      0.0000     -1.0225
-------------------------------------------------------------------------------




  Elastic Constant Matrix: (Units=GPa)

-------------------------------------------------------------------------------
  Indices      1         2         3         4         5         6    
-------------------------------------------------------------------------------
       1    149.7571   33.5619   -7.2094    0.0000    0.0000    0.0000
       2     33.5619  149.7571   -7.2094    0.0000    0.0000    0.0000
       3     -7.2094   -7.2094  222.2980    0.0000    0.0000    0.0000
       4      0.0000    0.0000    0.0000    0.5752    0.0000    0.0000
       5      0.0000    0.0000    0.0000    0.0000    0.5752    0.0000
       6      0.0000    0.0000    0.0000    0.0000    0.0000   28.8530
-------------------------------------------------------------------------------


  Elastic Compliance Matrix: (Units=1/GPa)

-------------------------------------------------------------------------------
  Indices      1         2         3         4         5         6    
-------------------------------------------------------------------------------
       1    0.007038 -0.001569  0.000177  0.000000  0.000000  0.000000
       2   -0.001569  0.007038  0.000177  0.000000  0.000000  0.000000
       3    0.000177  0.000177  0.004510  0.000000  0.000000  0.000000
       4    0.000000  0.000000  0.000000  1.738498  0.000000  0.000000
       5    0.000000  0.000000  0.000000  0.000000  1.738498  0.000000
       6    0.000000  0.000000  0.000000  0.000000  0.000000  0.034658
-------------------------------------------------------------------------------

  Mechanical properties :

-------------------------------------------------------------------------------
  Convention :                    Reuss         Voigt         Hill
-------------------------------------------------------------------------------
  Bulk  Modulus (GPa)     =      61.89164      62.23315      62.06239
  Shear Modulus (GPa)     =       1.41321      39.51196      20.46258
-------------------------------------------------------------------------------
  Velocity S-wave (km/s)  =       0.62590       3.30955       2.38169
  Velocity P-wave (km/s)  =       4.20468       5.64410       4.97671
-------------------------------------------------------------------------------
  Compressibility (1/GPa) =    0.01615727
-------------------------------------------------------------------------------
  Stress axis :                     x             y             z
-------------------------------------------------------------------------------
  Youngs Moduli (GPa)     =     142.09462     142.09462     221.73096
-------------------------------------------------------------------------------
  Poissons Ratio (x)      =                     0.22290      -0.03933
  Poissons Ratio (y)      =       0.22290                    -0.03933
  Poissons Ratio (z)      =      -0.02520      -0.02520
-------------------------------------------------------------------------------


  Piezoelectric Strain Matrix: (Units=C/m**2)

-------------------------------------------------------------------------------
  Indices      1         2         3         4         5         6    
-------------------------------------------------------------------------------
       x     0.00000   0.00000   0.00000   0.00000   0.00000   0.00000
       y     0.00000   0.00000   0.00000   0.00000   0.00000   0.00000
       z     0.00000   0.00000   0.00000   0.00000   0.00000   0.00000
-------------------------------------------------------------------------------


  Piezoelectric Stress Matrix: (Units=10**-11 C/N)

-------------------------------------------------------------------------------
  Indices      1         2         3         4         5         6    
-------------------------------------------------------------------------------
       x     0.00000   0.00000   0.00000   0.00000   0.00000   0.00000
       y     0.00000   0.00000   0.00000   0.00000   0.00000   0.00000
       z     0.00000   0.00000   0.00000   0.00000   0.00000   0.00000
-------------------------------------------------------------------------------


  Static dielectric constant tensor : 

-------------------------------------------------------------------------------
              x         y         z
-------------------------------------------------------------------------------
       x     8.08095   0.00000   0.00000
       y     0.00000   8.08095   0.00000
       z     0.00000   0.00000   1.00870
--------------------------------------------------------------------------------

  High frequency dielectric constant tensor : 

-------------------------------------------------------------------------------
              x         y         z
-------------------------------------------------------------------------------
       x     1.51636   0.00000   0.00000
       y     0.00000   1.51636   0.00000
       z     0.00000   0.00000   1.50628
-------------------------------------------------------------------------------

  Static refractive indices : 

-------------------------------------------------------------------------------
    1 =    1.00434      2 =    2.84270      3 =    2.84270
-------------------------------------------------------------------------------

  High frequency refractive indices : 

-------------------------------------------------------------------------------
    1 =    1.22731      2 =    1.23141      3 =    1.23141
-------------------------------------------------------------------------------


  Time to end of optimisation =       0.0513 seconds


  Peak dynamic memory used =       0.59 MB 


  Timing analysis for GULP :

--------------------------------------------------------------------------------
  Task / Subroutine                                          Time (Seconds)
--------------------------------------------------------------------------------
  Calculation of reciprocal space energy and derivatives          0.0009
  Calculation of reciprocal space energy using symmetry           0.0042
  Calculation of real space energy and derivatives                0.0038
  Calculation of real space energy using symmetry                 0.0384
  Symmetry generation of equivalent positions                     0.0005
--------------------------------------------------------------------------------
  Total CPU time                                                  0.0514
--------------------------------------------------------------------------------


  CIF file written as perov.cif                                               


  Job Finished at 14:08.44  6th April      2017                               

