********************************************************************************
*                       GENERAL UTILITY LATTICE PROGRAM                        *
*                                 Julian Gale                                  *
*                      Nanochemistry Research Institute                        *
*                           Department of Chemistry                            *
*                    Curtin University, Western Australia                      *
********************************************************************************
* Version = 4.3.2 * Last modified =  3rd March 2015                            *
********************************************************************************
*  optimise     - perform optimisation run                                     *
*  conp         - constant pressure calculation                                *
*  property     - calculate properties for final geometry                      *
********************************************************************************

  Job Started  at 14:08.43  6th April      2017                               

  Number of CPUs =     1


  Total number of configurations input =   1

********************************************************************************
*  Input for Configuration =   1                                               *
********************************************************************************

  Formula = K2Zn2F6                                                     

  Number of irreducible atoms/shells =       6


  Total number atoms/shells =      16

  Dimensionality = 3               :  Bulk   


  Symmetry :

  Crystal family                   :  Tetragonal  
  Crystal class  (Groth - 1921)    :  Ditetragonal Dipyramidal             

  Space group (centrosymmetric)    :  P 4/M B M       

  Patterson group                  :  P 4/m m m

  Cartesian lattice vectors (Angstroms) :

        4.200000    0.000000    0.000000
        0.000000    4.200000    0.000000
        0.000000    0.000000    4.200000

  Cell parameters (Angstroms/Degrees):

  a =       4.2000    alpha =  90.0000
  b =       4.2000    beta  =  90.0000
  c =       4.2000    gamma =  90.0000

  Initial cell volume =          74.088000 Angs**3

  Temperature of configuration =  0.000     K 

  Pressure of configuration =         0.000 GPa 

  Fractional coordinates of asymmetric unit :

--------------------------------------------------------------------------------
   No.  Atomic       x           y          z         Charge      Occupancy
        Label      (Frac)      (Frac)     (Frac)        (e)         (Frac)  
--------------------------------------------------------------------------------
      1 K     c    0.000000    0.000000    0.000000     1.20000    1.000000    
      2 Zn    c    0.000000    0.500000    0.000000     1.70000    1.000000    
      3 F     c    0.000000    0.500000    0.500000     0.37800    1.000000    
      4 F     c    0.227100 *  0.727100    0.000000     0.37800    1.000000    
      5 F     s    0.000000    0.500000    0.500000    -1.34467    1.000000    
      6 F     s    0.227100 *  0.727100    0.000000    -1.34467    1.000000    
--------------------------------------------------------------------------------


  Constraints : 

--------------------------------------------------------------------------------
  Constraint no.      Unconstrained     Constrained    Coefficient    Offset
                         Variable         Variable
--------------------------------------------------------------------------------
           1              Strain 1        Strain 2       1.00000      0.0000
           2                 4 x             4 y         1.00000      0.5000
           3                 6 x             6 y         1.00000      0.5000
--------------------------------------------------------------------------------


********************************************************************************
*  General input information                                                   *
********************************************************************************

  Species output for all configurations : 

--------------------------------------------------------------------------------
  Species    Type    Atomic    Atomic    Charge       Radii (Angs)     Library
                     Number     Mass       (e)     Cova   Ionic  VDW   Symbol
--------------------------------------------------------------------------------
    K        Core       19      39.10   1.200000   1.330  0.000  2.800          
    Zn       Core       30      65.39   1.700000   1.450  0.000  2.160          
    F        Core        9      19.00   0.378000   0.710  0.000  1.300          
    F        Shell       9       0.00  -1.344667   0.710  0.000  1.300          
--------------------------------------------------------------------------------


  Lattice summation method               =    Ewald          (3-D)
                                         =    Parry          (2-D)
                                         =    Saunders et al (1-D)
  Accuracy factor for lattice sums       =   12.000


  Time limit = Infinity

  Maximum range for interatomic potentials =    100000.000000 Angstroms

  General interatomic potentials :

--------------------------------------------------------------------------------
Atom  Types   Potential         A         B         C         D     Cutoffs(Ang)
  1     2                                                            Min    Max 
--------------------------------------------------------------------------------
K    c K    c Buckingham    0.219E+04 0.192      0.00      0.00     0.000 10.000
Zn   c F    s Buckingham    0.148E+04 0.266      0.00      0.00     0.000 10.000
F    s F    s Buckingham     912.     0.271      40.0      0.00     0.000 10.000
K    c F    s Buckingham    0.352E+04 0.267      0.00      0.00     0.000 10.000
F    c F    s Spring (c-s)   23.2      0.00      0.00      0.00     0.000  0.800
--------------------------------------------------------------------------------

********************************************************************************
*  Output for configuration   1                                                *
********************************************************************************


  Components of energy : 

--------------------------------------------------------------------------------
  Interatomic potentials     =         157.52996919 eV
  Monopole - monopole (real) =         -41.75674147 eV
  Monopole - monopole (recip)=         -59.30229818 eV
  Monopole - monopole (total)=        -101.05903965 eV
--------------------------------------------------------------------------------
  Total lattice energy       =          56.47092954 eV
--------------------------------------------------------------------------------
  Total lattice energy       =            5448.5815 kJ/(mole unit cells)
--------------------------------------------------------------------------------


  Number of variables =        4

  Maximum number of calculations  =          1000
  Maximum Hessian update interval =            10
  Maximum step size               =   1.000000000
  Maximum parameter tolerance     =   0.000010000
  Maximum function  tolerance     =   0.000010000
  Maximum gradient  tolerance     =   0.001000000
  Maximum gradient  component     =   0.010000000

  Symmetry constrained optimisation

  Symmetry used for second derivatives

  Cell parameters to be optimised using strains

  Newton-Raphson optimiser to be used

  BFGS hessian update to be used

  Start of bulk optimisation :

  Cycle:      0 Energy:        56.470930  Gnorm:    205.395916  CPU:    0.005
  ** Hessian calculated **
  Cycle:      1 Energy:       -63.685744  Gnorm:     23.486215  CPU:    0.012
  ** Hessian calculated **
  Cycle:      2 Energy:       -64.638398  Gnorm:      5.249086  CPU:    0.018
  Cycle:      3 Energy:       -64.710438  Gnorm:      0.399625  CPU:    0.021
  Cycle:      4 Energy:       -64.718281  Gnorm:      0.421776  CPU:    0.024
  Cycle:      5 Energy:       -64.720146  Gnorm:      0.145031  CPU:    0.027
  Cycle:      6 Energy:       -64.721057  Gnorm:      0.073618  CPU:    0.030
  Cycle:      7 Energy:       -64.721061  Gnorm:      0.005670  CPU:    0.033
  Cycle:      8 Energy:       -64.721062  Gnorm:      0.004053  CPU:    0.036


  **** Optimisation achieved ****


  Final energy =     -64.72106153 eV
  Final Gnorm  =       0.00046979

  Components of energy : 

--------------------------------------------------------------------------------
  Interatomic potentials     =           8.45727937 eV
  Monopole - monopole (real) =         -14.39066115 eV
  Monopole - monopole (recip)=         -58.78767974 eV
  Monopole - monopole (total)=         -73.17834090 eV
--------------------------------------------------------------------------------
  Total lattice energy       =         -64.72106153 eV
--------------------------------------------------------------------------------
  Total lattice energy       =           -6244.5931 kJ/(mole unit cells)
--------------------------------------------------------------------------------

  Final asymmetric unit coordinates :

--------------------------------------------------------------------------------
   No.  Atomic        x           y           z         Radius
        Label       (Frac)      (Frac)      (Frac)       (Angs) 
--------------------------------------------------------------------------------
     1  K     c     0.000000    0.000000    0.000000    0.000000
     2  Zn    c     0.000000    0.500000    0.000000    0.000000
     3  F     c     0.000000    0.500000    0.500000    0.000000
     4  F     c     0.230243    0.730243    0.000000    0.000000
     5  F     s     0.000000    0.500000    0.500000    0.000000
     6  F     s     0.228704    0.728704    0.000000    0.000000
--------------------------------------------------------------------------------

  Final Cartesian lattice vectors (Angstroms) :

        6.718437    0.000000    0.000000
        0.000000    6.718437    0.000000
        0.000000    0.000000    3.946331


  Final cell parameters and derivatives :

--------------------------------------------------------------------------------
       a            6.718437 Angstrom     dE/de1(xx)    -0.000016 eV/strain
       b            6.718437 Angstrom     dE/de2(yy)     0.000000 eV/strain
       c            3.946331 Angstrom     dE/de3(zz)    -0.000043 eV/strain
       alpha       90.000000 Degrees      dE/de4(yz)     0.000000 eV/strain
       beta        90.000000 Degrees      dE/de5(xz)     0.000000 eV/strain
       gamma       90.000000 Degrees      dE/de6(xy)     0.000000 eV/strain
--------------------------------------------------------------------------------

  Primitive cell volume =           178.127142 Angs**3

  Density of cell =      3.010936 g/cm**3

  Non-primitive cell volume =           178.127142 Angs**3


  Final internal derivatives :

--------------------------------------------------------------------------------
   No.  Atomic          a             b             c           Radius
        Label          (eV)          (eV)          (eV)        (eV/Angs)
--------------------------------------------------------------------------------
      1 K     c       0.000000      0.000000      0.000000      0.000000
      2 Zn    c       0.000000      0.000000      0.000000      0.000000
      3 F     c       0.000000      0.000000      0.000000      0.000000
      4 F     c       0.001188      0.000000      0.000000      0.000000
      5 F     s       0.000000      0.000000      0.000000      0.000000
      6 F     s      -0.001456      0.000000      0.000000      0.000000
--------------------------------------------------------------------------------
  Maximum abs         0.001456      0.000000      0.000000      0.000000
--------------------------------------------------------------------------------


  Born effective charge tensors : 

-------------------------------------------------------------------------------
  Atom             x           y             z
-------------------------------------------------------------------------------
   1 K     x       0.9604     -0.0047      0.0000
           y       0.0047      0.9604      0.0000
           z       0.0000      0.0000      1.1900
-------------------------------------------------------------------------------
   2 Zn    x       1.6487     -0.1065      0.0000
           y      -0.1065      1.6487      0.0000
           z       0.0000      0.0000      1.1378
-------------------------------------------------------------------------------
   3 F     x      -0.8918      0.0068      0.0000
           y       0.0068     -0.8918      0.0000
           z       0.0000      0.0000     -0.6580
-------------------------------------------------------------------------------
   4 F     x      -0.8586     -0.2429      0.0000
           y      -0.2429     -0.8586      0.0000
           z       0.0000      0.0000     -0.8349
-------------------------------------------------------------------------------




  Elastic Constant Matrix: (Units=GPa)

-------------------------------------------------------------------------------
  Indices      1         2         3         4         5         6    
-------------------------------------------------------------------------------
       1     90.4952   28.3605   -4.1792    0.0000    0.0000    0.0000
       2     28.3605   90.4952   -4.1792    0.0000    0.0000    0.0000
       3     -4.1792   -4.1792  121.0364    0.0000    0.0000    0.0000
       4      0.0000    0.0000    0.0000    1.1422    0.0000    0.0000
       5      0.0000    0.0000    0.0000    0.0000    1.1422    0.0000
       6      0.0000    0.0000    0.0000    0.0000    0.0000   34.9409
-------------------------------------------------------------------------------


  Elastic Compliance Matrix: (Units=1/GPa)

-------------------------------------------------------------------------------
  Indices      1         2         3         4         5         6    
-------------------------------------------------------------------------------
       1    0.012264 -0.003830  0.000291  0.000000  0.000000  0.000000
       2   -0.003830  0.012264  0.000291  0.000000  0.000000  0.000000
       3    0.000291  0.000291  0.008282  0.000000  0.000000  0.000000
       4    0.000000  0.000000  0.000000  0.875540  0.000000  0.000000
       5    0.000000  0.000000  0.000000  0.000000  0.875540  0.000000
       6    0.000000  0.000000  0.000000  0.000000  0.000000  0.028620
-------------------------------------------------------------------------------

  Mechanical properties :

-------------------------------------------------------------------------------
  Convention :                    Reuss         Voigt         Hill
-------------------------------------------------------------------------------
  Bulk  Modulus (GPa)     =      38.00112      38.00347      38.00229
  Shear Modulus (GPa)     =       2.73556      26.24667      14.49112
-------------------------------------------------------------------------------
  Velocity S-wave (km/s)  =       0.95317       2.95248       2.19382
  Velocity P-wave (km/s)  =       3.71920       4.92388       4.36332
-------------------------------------------------------------------------------
  Compressibility (1/GPa) =    0.02631502
-------------------------------------------------------------------------------
  Stress axis :                     x             y             z
-------------------------------------------------------------------------------
  Youngs Moduli (GPa)     =      81.53908      81.53908     120.74254
-------------------------------------------------------------------------------
  Poissons Ratio (x)      =                     0.31230      -0.03516
  Poissons Ratio (y)      =       0.31230                    -0.03516
  Poissons Ratio (z)      =      -0.02375      -0.02375
-------------------------------------------------------------------------------


  Piezoelectric Strain Matrix: (Units=C/m**2)

-------------------------------------------------------------------------------
  Indices      1         2         3         4         5         6    
-------------------------------------------------------------------------------
       x     0.00000   0.00000   0.00000   0.00000   0.00000   0.00000
       y     0.00000   0.00000   0.00000   0.00000   0.00000   0.00000
       z     0.00000   0.00000   0.00000   0.00000   0.00000   0.00000
-------------------------------------------------------------------------------


  Piezoelectric Stress Matrix: (Units=10**-11 C/N)

-------------------------------------------------------------------------------
  Indices      1         2         3         4         5         6    
-------------------------------------------------------------------------------
       x     0.00000   0.00000   0.00000   0.00000   0.00000   0.00000
       y     0.00000   0.00000   0.00000   0.00000   0.00000   0.00000
       z     0.00000   0.00000   0.00000   0.00000   0.00000   0.00000
-------------------------------------------------------------------------------


  Static dielectric constant tensor : 

-------------------------------------------------------------------------------
              x         y         z
-------------------------------------------------------------------------------
       x    -1.53729   0.00000   0.00000
       y     0.00000  -1.53729   0.00000
       z     0.00000   0.00000   0.88384
--------------------------------------------------------------------------------

  High frequency dielectric constant tensor : 

-------------------------------------------------------------------------------
              x         y         z
-------------------------------------------------------------------------------
       x     1.46273   0.00000   0.00000
       y     0.00000   1.46273   0.00000
       z     0.00000   0.00000   1.42878
-------------------------------------------------------------------------------

  Static refractive indices : 

-------------------------------------------------------------------------------
    1 =   -1.23987      2 =   -1.23987      3 =    0.94013
-------------------------------------------------------------------------------

  High frequency refractive indices : 

-------------------------------------------------------------------------------
    1 =    1.19532      2 =    1.20943      3 =    1.20943
-------------------------------------------------------------------------------


  Time to end of optimisation =       0.0450 seconds


  Peak dynamic memory used =       0.59 MB 


  Timing analysis for GULP :

--------------------------------------------------------------------------------
  Task / Subroutine                                          Time (Seconds)
--------------------------------------------------------------------------------
  Calculation of reciprocal space energy and derivatives          0.0009
  Calculation of reciprocal space energy using symmetry           0.0035
  Calculation of real space energy and derivatives                0.0038
  Calculation of real space energy using symmetry                 0.0330
  Symmetry generation of equivalent positions                     0.0004
--------------------------------------------------------------------------------
  Total CPU time                                                  0.0451
--------------------------------------------------------------------------------


  CIF file written as perov.cif                                               


  Job Finished at 14:08.43  6th April      2017                               

