********************************************************************************
*                       GENERAL UTILITY LATTICE PROGRAM                        *
*                                 Julian Gale                                  *
*                      Nanochemistry Research Institute                        *
*                           Department of Chemistry                            *
*                    Curtin University, Western Australia                      *
********************************************************************************
* Version = 4.3.2 * Last modified =  3rd March 2015                            *
********************************************************************************
*  optimise     - perform optimisation run                                     *
*  conp         - constant pressure calculation                                *
*  property     - calculate properties for final geometry                      *
********************************************************************************

  Job Started  at 14:08.44  6th April      2017                               

  Number of CPUs =     1


  Total number of configurations input =   1

********************************************************************************
*  Input for Configuration =   1                                               *
********************************************************************************

  Formula = K2Zn2F6                                                     

  Number of irreducible atoms/shells =       6


  Total number atoms/shells =      16

  Dimensionality = 3               :  Bulk   


  Symmetry :

  Crystal family                   :  Tetragonal  
  Crystal class  (Groth - 1921)    :  Ditetragonal Dipyramidal             

  Space group (centrosymmetric)    :  P 4/M B M       

  Patterson group                  :  P 4/m m m

  Cartesian lattice vectors (Angstroms) :

        4.200000    0.000000    0.000000
        0.000000    4.200000    0.000000
        0.000000    0.000000    4.200000

  Cell parameters (Angstroms/Degrees):

  a =       4.2000    alpha =  90.0000
  b =       4.2000    beta  =  90.0000
  c =       4.2000    gamma =  90.0000

  Initial cell volume =          74.088000 Angs**3

  Temperature of configuration =  0.000     K 

  Pressure of configuration =         0.000 GPa 

  Fractional coordinates of asymmetric unit :

--------------------------------------------------------------------------------
   No.  Atomic       x           y          z         Charge      Occupancy
        Label      (Frac)      (Frac)     (Frac)        (e)         (Frac)  
--------------------------------------------------------------------------------
      1 K     c    0.000000    0.000000    0.000000     1.30000    1.000000    
      2 Zn    c    0.000000    0.500000    0.000000     2.00000    1.000000    
      3 F     c    0.000000    0.500000    0.500000     0.37800    1.000000    
      4 F     c    0.227100 *  0.727100    0.000000     0.37800    1.000000    
      5 F     s    0.000000    0.500000    0.500000    -1.47800    1.000000    
      6 F     s    0.227100 *  0.727100    0.000000    -1.47800    1.000000    
--------------------------------------------------------------------------------


  Constraints : 

--------------------------------------------------------------------------------
  Constraint no.      Unconstrained     Constrained    Coefficient    Offset
                         Variable         Variable
--------------------------------------------------------------------------------
           1              Strain 1        Strain 2       1.00000      0.0000
           2                 4 x             4 y         1.00000      0.5000
           3                 6 x             6 y         1.00000      0.5000
--------------------------------------------------------------------------------


********************************************************************************
*  General input information                                                   *
********************************************************************************

  Species output for all configurations : 

--------------------------------------------------------------------------------
  Species    Type    Atomic    Atomic    Charge       Radii (Angs)     Library
                     Number     Mass       (e)     Cova   Ionic  VDW   Symbol
--------------------------------------------------------------------------------
    K        Core       19      39.10   1.300000   1.330  0.000  2.800          
    Zn       Core       30      65.39   2.000000   1.450  0.000  2.160          
    F        Core        9      19.00   0.378000   0.710  0.000  1.300          
    F        Shell       9       0.00  -1.478000   0.710  0.000  1.300          
--------------------------------------------------------------------------------


  Lattice summation method               =    Ewald          (3-D)
                                         =    Parry          (2-D)
                                         =    Saunders et al (1-D)
  Accuracy factor for lattice sums       =   12.000


  Time limit = Infinity

  Maximum range for interatomic potentials =    100000.000000 Angstroms

  General interatomic potentials :

--------------------------------------------------------------------------------
Atom  Types   Potential         A         B         C         D     Cutoffs(Ang)
  1     2                                                            Min    Max 
--------------------------------------------------------------------------------
K    c K    c Buckingham    0.219E+04 0.192      0.00      0.00     0.000 10.000
Zn   c F    s Buckingham    0.148E+04 0.266      0.00      0.00     0.000 10.000
F    s F    s Buckingham     912.     0.271      40.0      0.00     0.000 10.000
K    c F    s Buckingham    0.352E+04 0.267      0.00      0.00     0.000 10.000
F    c F    s Spring (c-s)   28.0      0.00      0.00      0.00     0.000  0.800
--------------------------------------------------------------------------------

********************************************************************************
*  Output for configuration   1                                                *
********************************************************************************


  Components of energy : 

--------------------------------------------------------------------------------
  Interatomic potentials     =         157.52996919 eV
  Monopole - monopole (real) =         -54.46537147 eV
  Monopole - monopole (recip)=         -77.51240346 eV
  Monopole - monopole (total)=        -131.97777493 eV
--------------------------------------------------------------------------------
  Total lattice energy       =          25.55219426 eV
--------------------------------------------------------------------------------
  Total lattice energy       =            2465.3961 kJ/(mole unit cells)
--------------------------------------------------------------------------------


  Number of variables =        4

  Maximum number of calculations  =          1000
  Maximum Hessian update interval =            10
  Maximum step size               =   1.000000000
  Maximum parameter tolerance     =   0.000010000
  Maximum function  tolerance     =   0.000010000
  Maximum gradient  tolerance     =   0.001000000
  Maximum gradient  component     =   0.010000000

  Symmetry constrained optimisation

  Symmetry used for second derivatives

  Cell parameters to be optimised using strains

  Newton-Raphson optimiser to be used

  BFGS hessian update to be used

  Start of bulk optimisation :

  Cycle:      0 Energy:        25.552194  Gnorm:    197.801821  CPU:    0.005
  ** Hessian calculated **
  Cycle:      1 Energy:       -84.837098  Gnorm:     25.531051  CPU:    0.012
  ** Hessian calculated **
  Cycle:      2 Energy:       -87.774582  Gnorm:      6.418416  CPU:    0.018
  Cycle:      3 Energy:       -87.981985  Gnorm:      3.026750  CPU:    0.021
  Cycle:      4 Energy:       -87.998581  Gnorm:      0.588044  CPU:    0.024
  Cycle:      5 Energy:       -88.001947  Gnorm:      0.854929  CPU:    0.027
  Cycle:      6 Energy:       -88.002458  Gnorm:      0.075885  CPU:    0.030
  Cycle:      7 Energy:       -88.002470  Gnorm:      0.004788  CPU:    0.034


  **** Optimisation achieved ****


  Final energy =     -88.00246984 eV
  Final Gnorm  =       0.00061469

  Components of energy : 

--------------------------------------------------------------------------------
  Interatomic potentials     =          12.39172317 eV
  Monopole - monopole (real) =         -23.49769557 eV
  Monopole - monopole (recip)=         -76.89649744 eV
  Monopole - monopole (total)=        -100.39419302 eV
--------------------------------------------------------------------------------
  Total lattice energy       =         -88.00246984 eV
--------------------------------------------------------------------------------
  Total lattice energy       =           -8490.8931 kJ/(mole unit cells)
--------------------------------------------------------------------------------

  Final asymmetric unit coordinates :

--------------------------------------------------------------------------------
   No.  Atomic        x           y           z         Radius
        Label       (Frac)      (Frac)      (Frac)       (Angs) 
--------------------------------------------------------------------------------
     1  K     c     0.000000    0.000000    0.000000    0.000000
     2  Zn    c     0.000000    0.500000    0.000000    0.000000
     3  F     c     0.000000    0.500000    0.500000    0.000000
     4  F     c     0.218617    0.718617    0.000000    0.000000
     5  F     s     0.000000    0.500000    0.500000    0.000000
     6  F     s     0.215893    0.715893    0.000000    0.000000
--------------------------------------------------------------------------------

  Final Cartesian lattice vectors (Angstroms) :

        6.527134    0.000000    0.000000
        0.000000    6.527134    0.000000
        0.000000    0.000000    3.744563


  Final cell parameters and derivatives :

--------------------------------------------------------------------------------
       a            6.527134 Angstrom     dE/de1(xx)    -0.000343 eV/strain
       b            6.527134 Angstrom     dE/de2(yy)     0.000000 eV/strain
       c            3.744563 Angstrom     dE/de3(zz)    -0.000193 eV/strain
       alpha       90.000000 Degrees      dE/de4(yz)     0.000000 eV/strain
       beta        90.000000 Degrees      dE/de5(xz)     0.000000 eV/strain
       gamma       90.000000 Degrees      dE/de6(xy)     0.000000 eV/strain
--------------------------------------------------------------------------------

  Primitive cell volume =           159.531409 Angs**3

  Density of cell =      3.361905 g/cm**3

  Non-primitive cell volume =           159.531409 Angs**3


  Final internal derivatives :

--------------------------------------------------------------------------------
   No.  Atomic          a             b             c           Radius
        Label          (eV)          (eV)          (eV)        (eV/Angs)
--------------------------------------------------------------------------------
      1 K     c       0.000000      0.000000      0.000000      0.000000
      2 Zn    c       0.000000      0.000000      0.000000      0.000000
      3 F     c       0.000000      0.000000      0.000000      0.000000
      4 F     c      -0.001752      0.000000      0.000000      0.000000
      5 F     s       0.000000      0.000000      0.000000      0.000000
      6 F     s       0.001680      0.000000      0.000000      0.000000
--------------------------------------------------------------------------------
  Maximum abs         0.001752      0.000000      0.000000      0.000000
--------------------------------------------------------------------------------


  Born effective charge tensors : 

-------------------------------------------------------------------------------
  Atom             x           y             z
-------------------------------------------------------------------------------
   1 K     x       1.0552     -0.0055      0.0000
           y       0.0055      1.0552      0.0000
           z       0.0000      0.0000      1.2929
-------------------------------------------------------------------------------
   2 Zn    x       1.8134     -0.2009      0.0000
           y      -0.2009      1.8134      0.0000
           z       0.0000      0.0000      1.3253
-------------------------------------------------------------------------------
   3 F     x      -0.9806      0.0128      0.0000
           y       0.0128     -0.9806      0.0000
           z       0.0000      0.0000     -0.7337
-------------------------------------------------------------------------------
   4 F     x      -0.9440     -0.2370      0.0000
           y      -0.2370     -0.9440      0.0000
           z       0.0000      0.0000     -0.9423
-------------------------------------------------------------------------------




  Elastic Constant Matrix: (Units=GPa)

-------------------------------------------------------------------------------
  Indices      1         2         3         4         5         6    
-------------------------------------------------------------------------------
       1    126.1574   34.2618   -5.8639    0.0000    0.0000    0.0000
       2     34.2618  126.1574   -5.8639    0.0000    0.0000    0.0000
       3     -5.8639   -5.8639  172.4832    0.0000    0.0000    0.0000
       4      0.0000    0.0000    0.0000    1.3750    0.0000    0.0000
       5      0.0000    0.0000    0.0000    0.0000    1.3750    0.0000
       6      0.0000    0.0000    0.0000    0.0000    0.0000   35.4110
-------------------------------------------------------------------------------


  Elastic Compliance Matrix: (Units=1/GPa)

-------------------------------------------------------------------------------
  Indices      1         2         3         4         5         6    
-------------------------------------------------------------------------------
       1    0.008566 -0.002316  0.000212  0.000000  0.000000  0.000000
       2   -0.002316  0.008566  0.000212  0.000000  0.000000  0.000000
       3    0.000212  0.000212  0.005812  0.000000  0.000000  0.000000
       4    0.000000  0.000000  0.000000  0.727266  0.000000  0.000000
       5    0.000000  0.000000  0.000000  0.000000  0.727266  0.000000
       6    0.000000  0.000000  0.000000  0.000000  0.000000  0.028240
-------------------------------------------------------------------------------

  Mechanical properties :

-------------------------------------------------------------------------------
  Convention :                    Reuss         Voigt         Hill
-------------------------------------------------------------------------------
  Bulk  Modulus (GPa)     =      52.19120      52.20735      52.19927
  Shear Modulus (GPa)     =       3.29841      34.44978      18.87409
-------------------------------------------------------------------------------
  Velocity S-wave (km/s)  =       0.99051       3.20111       2.36941
  Velocity P-wave (km/s)  =       4.10274       5.40295       4.79710
-------------------------------------------------------------------------------
  Compressibility (1/GPa) =    0.01916032
-------------------------------------------------------------------------------
  Stress axis :                     x             y             z
-------------------------------------------------------------------------------
  Youngs Moduli (GPa)     =     116.74658     116.74658     172.05449
-------------------------------------------------------------------------------
  Poissons Ratio (x)      =                     0.27043      -0.03655
  Poissons Ratio (y)      =       0.27043                    -0.03655
  Poissons Ratio (z)      =      -0.02480      -0.02480
-------------------------------------------------------------------------------


  Piezoelectric Strain Matrix: (Units=C/m**2)

-------------------------------------------------------------------------------
  Indices      1         2         3         4         5         6    
-------------------------------------------------------------------------------
       x     0.00000   0.00000   0.00000   0.00000   0.00000   0.00000
       y     0.00000   0.00000   0.00000   0.00000   0.00000   0.00000
       z     0.00000   0.00000   0.00000   0.00000   0.00000   0.00000
-------------------------------------------------------------------------------


  Piezoelectric Stress Matrix: (Units=10**-11 C/N)

-------------------------------------------------------------------------------
  Indices      1         2         3         4         5         6    
-------------------------------------------------------------------------------
       x     0.00000   0.00000   0.00000   0.00000   0.00000   0.00000
       y     0.00000   0.00000   0.00000   0.00000   0.00000   0.00000
       z     0.00000   0.00000   0.00000   0.00000   0.00000   0.00000
-------------------------------------------------------------------------------


  Static dielectric constant tensor : 

-------------------------------------------------------------------------------
              x         y         z
-------------------------------------------------------------------------------
       x     1.73228   0.00000   0.00000
       y     0.00000   1.73228   0.00000
       z     0.00000   0.00000   0.91337
--------------------------------------------------------------------------------

  High frequency dielectric constant tensor : 

-------------------------------------------------------------------------------
              x         y         z
-------------------------------------------------------------------------------
       x     1.50224   0.00000   0.00000
       y     0.00000   1.50224   0.00000
       z     0.00000   0.00000   1.47392
-------------------------------------------------------------------------------

  Static refractive indices : 

-------------------------------------------------------------------------------
    1 =    0.95570      2 =    1.31616      3 =    1.31616
-------------------------------------------------------------------------------

  High frequency refractive indices : 

-------------------------------------------------------------------------------
    1 =    1.21405      2 =    1.22566      3 =    1.22566
-------------------------------------------------------------------------------


  Time to end of optimisation =       0.0431 seconds


  Peak dynamic memory used =       0.59 MB 


  Timing analysis for GULP :

--------------------------------------------------------------------------------
  Task / Subroutine                                          Time (Seconds)
--------------------------------------------------------------------------------
  Calculation of reciprocal space energy and derivatives          0.0009
  Calculation of reciprocal space energy using symmetry           0.0034
  Calculation of real space energy and derivatives                0.0041
  Calculation of real space energy using symmetry                 0.0308
  Symmetry generation of equivalent positions                     0.0004
--------------------------------------------------------------------------------
  Total CPU time                                                  0.0431
--------------------------------------------------------------------------------


  CIF file written as perov.cif                                               


  Job Finished at 14:08.44  6th April      2017                               

