********************************************************************************
*                       GENERAL UTILITY LATTICE PROGRAM                        *
*                                 Julian Gale                                  *
*                      Nanochemistry Research Institute                        *
*                           Department of Chemistry                            *
*                    Curtin University, Western Australia                      *
********************************************************************************
* Version = 4.3.2 * Last modified =  3rd March 2015                            *
********************************************************************************
*  optimise     - perform optimisation run                                     *
*  conp         - constant pressure calculation                                *
*  property     - calculate properties for final geometry                      *
********************************************************************************

  Job Started  at 14:00.00 22nd February   2017                               

  Number of CPUs =     1


  Total number of configurations input =   1

********************************************************************************
*  Input for Configuration =   1                                               *
********************************************************************************

  Formula = KZnF3                                                       

  Number of irreducible atoms/shells =       8


  Total number atoms/shells =       8

  Dimensionality = 3               :  Bulk   



  Cartesian lattice vectors (Angstroms) :

        4.200000    0.000000    0.000000
        0.000000    4.200000    0.000000
        0.000000    0.000000    4.200000

  Cell parameters (Angstroms/Degrees):

  a =       4.2000    alpha =  90.0000
  b =       4.2000    beta  =  90.0000
  c =       4.2000    gamma =  90.0000

  Initial cell volume =          74.088000 Angs**3

  Temperature of configuration =  0.000     K 

  Pressure of configuration =         0.000 GPa 

  Fractional coordinates of asymmetric unit :

--------------------------------------------------------------------------------
   No.  Atomic       x           y          z         Charge      Occupancy
        Label      (Frac)      (Frac)     (Frac)        (e)         (Frac)  
--------------------------------------------------------------------------------
      1 K     c    0.000000    0.000000    0.000000     1.30000    1.000000    
      2 Zn    c    0.500000 *  0.500000 *  0.500000 *   2.20000    1.000000    
      3 F     c    0.500000 *  0.500000 *  0.000000 *   0.37800    1.000000    
      4 F     c    0.000000 *  0.500000 *  0.500000 *   0.37800    1.000000    
      5 F     c    0.500000 *  0.000000 *  0.500000 *   0.37800    1.000000    
      6 F     s    0.500000 *  0.500000 *  0.000000 *  -1.54467    1.000000    
      7 F     s    0.000000 *  0.500000 *  0.500000 *  -1.54467    1.000000    
      8 F     s    0.500000 *  0.000000 *  0.500000 *  -1.54467    1.000000    
--------------------------------------------------------------------------------



********************************************************************************
*  General input information                                                   *
********************************************************************************

  Species output for all configurations : 

--------------------------------------------------------------------------------
  Species    Type    Atomic    Atomic    Charge       Radii (Angs)     Library
                     Number     Mass       (e)     Cova   Ionic  VDW   Symbol
--------------------------------------------------------------------------------
    K        Core       19      39.10   1.300000   1.330  0.000  2.800          
    Zn       Core       30      65.39   2.200000   1.450  0.000  2.160          
    F        Core        9      19.00   0.378000   0.710  0.000  1.300          
    F        Shell       9       0.00  -1.544667   0.710  0.000  1.300          
--------------------------------------------------------------------------------


  Lattice summation method               =    Ewald          (3-D)
                                         =    Parry          (2-D)
                                         =    Saunders et al (1-D)
  Accuracy factor for lattice sums       =   12.000


  Time limit = Infinity

  Maximum range for interatomic potentials =    100000.000000 Angstroms

  General interatomic potentials :

--------------------------------------------------------------------------------
Atom  Types   Potential         A         B         C         D     Cutoffs(Ang)
  1     2                                                            Min    Max 
--------------------------------------------------------------------------------
K    c K    c Buckingham    0.219E+04 0.192      0.00      0.00     0.000 10.000
Zn   c F    s Buckingham    0.148E+04 0.266      0.00      0.00     0.000 10.000
F    s F    s Buckingham     912.     0.271      40.0      0.00     0.000 10.000
K    c F    s Buckingham    0.352E+04 0.267      0.00      0.00     0.000 10.000
F    c F    s Spring (c-s)   30.6      0.00      0.00      0.00     0.000  0.800
--------------------------------------------------------------------------------

********************************************************************************
*  Output for configuration   1                                                *
********************************************************************************


  Components of energy : 

--------------------------------------------------------------------------------
  Interatomic potentials     =           3.31142283 eV
  Monopole - monopole (real) =         -13.64764358 eV
  Monopole - monopole (recip)=         -42.37292520 eV
  Monopole - monopole (total)=         -56.02056878 eV
--------------------------------------------------------------------------------
  Total lattice energy       =         -52.70914595 eV
--------------------------------------------------------------------------------
  Total lattice energy       =           -5085.6269 kJ/(mole unit cells)
--------------------------------------------------------------------------------


  Number of variables =       27

  Maximum number of calculations  =          1000
  Maximum Hessian update interval =            10
  Maximum step size               =   1.000000000
  Maximum parameter tolerance     =   0.000010000
  Maximum function  tolerance     =   0.000010000
  Maximum gradient  tolerance     =   0.001000000
  Maximum gradient  component     =   0.010000000

  Symmetry not applied to optimisation

  Cell parameters to be optimised using strains

  Newton-Raphson optimiser to be used

  BFGS hessian update to be used

  Start of bulk optimisation :

  Cycle:      0 Energy:       -52.709146  Gnorm:      0.548537  CPU:    0.003
  ** Hessian calculated **
  Cycle:      1 Energy:       -53.955930  Gnorm:      0.163144  CPU:    0.004
  Cycle:      2 Energy:       -54.039367  Gnorm:      0.000709  CPU:    0.006


  **** Optimisation achieved ****


  Final energy =     -54.03936884 eV
  Final Gnorm  =       0.00006430

  Components of energy : 

--------------------------------------------------------------------------------
  Interatomic potentials     =           7.40393751 eV
  Monopole - monopole (real) =         -14.96872245 eV
  Monopole - monopole (recip)=         -46.47458389 eV
  Monopole - monopole (total)=         -61.44330634 eV
--------------------------------------------------------------------------------
  Total lattice energy       =         -54.03936884 eV
--------------------------------------------------------------------------------
  Total lattice energy       =           -5213.9730 kJ/(mole unit cells)
--------------------------------------------------------------------------------

  Final fractional coordinates of atoms :

--------------------------------------------------------------------------------
   No.  Atomic        x           y          z          Radius
        Label       (Frac)      (Frac)     (Frac)       (Angs) 
--------------------------------------------------------------------------------
     1  K     c     0.000000    0.000000    0.000000    0.000000
     2  Zn    c     0.500000    0.500000    0.500000    0.000000
     3  F     c     0.500000    0.500000    0.000000    0.000000
     4  F     c     1.000000    0.500000    0.500000    0.000000
     5  F     c     0.500000    0.000000    0.500000    0.000000
     6  F     s     0.500000    0.500000    0.000000    0.000000
     7  F     s     1.000000    0.500000    0.500000    0.000000
     8  F     s     0.500000    0.000000    0.500000    0.000000
--------------------------------------------------------------------------------

  Final Cartesian lattice vectors (Angstroms) :

        3.829325    0.000000    0.000000
        0.000000    3.829325    0.000000
        0.000000    0.000000    3.829325


  Final cell parameters and derivatives :

--------------------------------------------------------------------------------
       a            3.829325 Angstrom     dE/de1(xx)    -0.001002 eV/strain
       b            3.829325 Angstrom     dE/de2(yy)    -0.001002 eV/strain
       c            3.829325 Angstrom     dE/de3(zz)    -0.001002 eV/strain
       alpha       90.000000 Degrees      dE/de4(yz)     0.000000 eV/strain
       beta        90.000000 Degrees      dE/de5(xz)     0.000000 eV/strain
       gamma       90.000000 Degrees      dE/de6(xy)     0.000000 eV/strain
--------------------------------------------------------------------------------

  Primitive cell volume =            56.152188 Angs**3

  Density of cell =      4.775677 g/cm**3

  Non-primitive cell volume =            56.152188 Angs**3


  Final internal derivatives :

--------------------------------------------------------------------------------
   No.  Atomic          a             b             c           Radius
        Label          (eV)          (eV)          (eV)        (eV/Angs)
--------------------------------------------------------------------------------
      1 K     c       0.000000      0.000000      0.000000      0.000000
      2 Zn    c       0.000000      0.000000      0.000000      0.000000
      3 F     c       0.000000      0.000000      0.000000      0.000000
      4 F     c       0.000000      0.000000      0.000000      0.000000
      5 F     c       0.000000      0.000000      0.000000      0.000000
      6 F     s       0.000000      0.000000      0.000000      0.000000
      7 F     s       0.000000      0.000000      0.000000      0.000000
      8 F     s       0.000000      0.000000      0.000000      0.000000
--------------------------------------------------------------------------------
  Maximum abs         0.000000      0.000000      0.000000      0.000000
--------------------------------------------------------------------------------


  Born effective charge tensors : 

-------------------------------------------------------------------------------
  Atom             x           y             z
-------------------------------------------------------------------------------
   1 K     x       1.3036      0.0000      0.0000
           y       0.0000      1.3036      0.0000
           z       0.0000      0.0000      1.3036
-------------------------------------------------------------------------------
   2 Zn    x       1.6437      0.0000      0.0000
           y       0.0000      1.6437      0.0000
           z       0.0000      0.0000      1.6437
-------------------------------------------------------------------------------
   3 F     x      -0.9824      0.0000      0.0000
           y       0.0000     -0.9824      0.0000
           z       0.0000      0.0000     -0.9825
-------------------------------------------------------------------------------
   4 F     x      -0.9825      0.0000      0.0000
           y       0.0000     -0.9824      0.0000
           z       0.0000      0.0000     -0.9824
-------------------------------------------------------------------------------
   5 F     x      -0.9824      0.0000      0.0000
           y       0.0000     -0.9825      0.0000
           z       0.0000      0.0000     -0.9824
-------------------------------------------------------------------------------




  Elastic Constant Matrix: (Units=GPa)

-------------------------------------------------------------------------------
  Indices      1         2         3         4         5         6    
-------------------------------------------------------------------------------
       1    227.2564   69.9881   69.9881    0.0000    0.0000    0.0000
       2     69.9881  227.2564   69.9881    0.0000    0.0000    0.0000
       3     69.9881   69.9881  227.2564    0.0000    0.0000    0.0000
       4      0.0000    0.0000    0.0000   69.9853    0.0000    0.0000
       5      0.0000    0.0000    0.0000    0.0000   69.9853    0.0000
       6      0.0000    0.0000    0.0000    0.0000    0.0000   69.9853
-------------------------------------------------------------------------------


  Elastic Compliance Matrix: (Units=1/GPa)

-------------------------------------------------------------------------------
  Indices      1         2         3         4         5         6    
-------------------------------------------------------------------------------
       1    0.005147 -0.001212 -0.001212  0.000000  0.000000  0.000000
       2   -0.001212  0.005147 -0.001212  0.000000  0.000000  0.000000
       3   -0.001212 -0.001212  0.005147  0.000000  0.000000  0.000000
       4    0.000000  0.000000  0.000000  0.014289  0.000000  0.000000
       5    0.000000  0.000000  0.000000  0.000000  0.014289  0.000000
       6    0.000000  0.000000  0.000000  0.000000  0.000000  0.014289
-------------------------------------------------------------------------------

  Mechanical properties :

-------------------------------------------------------------------------------
  Convention :                    Reuss         Voigt         Hill
-------------------------------------------------------------------------------
  Bulk  Modulus (GPa)     =     122.41090     122.41090     122.41090
  Shear Modulus (GPa)     =      73.20601      73.44482      73.32542
-------------------------------------------------------------------------------
  Velocity S-wave (km/s)  =       3.91522       3.92160       3.91841
  Velocity P-wave (km/s)  =       6.78754       6.79245       6.79000
-------------------------------------------------------------------------------
  Compressibility (1/GPa) =    0.00816921
-------------------------------------------------------------------------------
  Stress axis :                     x             y             z
-------------------------------------------------------------------------------
  Youngs Moduli (GPa)     =     194.29809     194.29809     194.29809
-------------------------------------------------------------------------------
  Poissons Ratio (x)      =                     0.23546       0.23546
  Poissons Ratio (y)      =       0.23546                     0.23546
  Poissons Ratio (z)      =       0.23546       0.23546
-------------------------------------------------------------------------------


  Piezoelectric Strain Matrix: (Units=C/m**2)

-------------------------------------------------------------------------------
  Indices      1         2         3         4         5         6    
-------------------------------------------------------------------------------
       x     0.00000   0.00000   0.00000   0.00000   0.00000   0.00000
       y     0.00000   0.00000   0.00000   0.00000   0.00000   0.00000
       z     0.00000   0.00000   0.00000   0.00000   0.00000   0.00000
-------------------------------------------------------------------------------


  Piezoelectric Stress Matrix: (Units=10**-11 C/N)

-------------------------------------------------------------------------------
  Indices      1         2         3         4         5         6    
-------------------------------------------------------------------------------
       x     0.00000   0.00000   0.00000   0.00000   0.00000   0.00000
       y     0.00000   0.00000   0.00000   0.00000   0.00000   0.00000
       z     0.00000   0.00000   0.00000   0.00000   0.00000   0.00000
-------------------------------------------------------------------------------


  Static dielectric constant tensor : 

-------------------------------------------------------------------------------
              x         y         z
-------------------------------------------------------------------------------
       x     4.81134   0.00000   0.00000
       y     0.00000   4.81134   0.00000
       z     0.00000   0.00000   4.81134
--------------------------------------------------------------------------------

  High frequency dielectric constant tensor : 

-------------------------------------------------------------------------------
              x         y         z
-------------------------------------------------------------------------------
       x     1.70831   0.00000   0.00000
       y     0.00000   1.70831   0.00000
       z     0.00000   0.00000   1.70831
-------------------------------------------------------------------------------

  Static refractive indices : 

-------------------------------------------------------------------------------
    1 =    2.19348      2 =    2.19348      3 =    2.19348
-------------------------------------------------------------------------------

  High frequency refractive indices : 

-------------------------------------------------------------------------------
    1 =    1.30702      2 =    1.30702      3 =    1.30702
-------------------------------------------------------------------------------


  Time to end of optimisation =       0.0102 seconds


  Peak dynamic memory used =       0.50 MB 


  Timing analysis for GULP :

--------------------------------------------------------------------------------
  Task / Subroutine                                          Time (Seconds)
--------------------------------------------------------------------------------
  Calculation of reciprocal space energy and derivatives          0.0009
  Calculation of real space energy and derivatives                0.0065
--------------------------------------------------------------------------------
  Total CPU time                                                  0.0103
--------------------------------------------------------------------------------


  CIF file written as perov.cif                                               


  Job Finished at 14:00.00 22nd February   2017                               

