********************************************************************************
*                       GENERAL UTILITY LATTICE PROGRAM                        *
*                                 Julian Gale                                  *
*                      Nanochemistry Research Institute                        *
*                           Department of Chemistry                            *
*                    Curtin University, Western Australia                      *
********************************************************************************
* Version = 4.3.2 * Last modified =  3rd March 2015                            *
********************************************************************************
*  optimise     - perform optimisation run                                     *
*  conp         - constant pressure calculation                                *
*  property     - calculate properties for final geometry                      *
********************************************************************************

  Job Started  at 13:59.59 22nd February   2017                               

  Number of CPUs =     1


  Total number of configurations input =   1

********************************************************************************
*  Input for Configuration =   1                                               *
********************************************************************************

  Formula = KZnF3                                                       

  Number of irreducible atoms/shells =       8


  Total number atoms/shells =       8

  Dimensionality = 3               :  Bulk   



  Cartesian lattice vectors (Angstroms) :

        4.200000    0.000000    0.000000
        0.000000    4.200000    0.000000
        0.000000    0.000000    4.200000

  Cell parameters (Angstroms/Degrees):

  a =       4.2000    alpha =  90.0000
  b =       4.2000    beta  =  90.0000
  c =       4.2000    gamma =  90.0000

  Initial cell volume =          74.088000 Angs**3

  Temperature of configuration =  0.000     K 

  Pressure of configuration =         0.000 GPa 

  Fractional coordinates of asymmetric unit :

--------------------------------------------------------------------------------
   No.  Atomic       x           y          z         Charge      Occupancy
        Label      (Frac)      (Frac)     (Frac)        (e)         (Frac)  
--------------------------------------------------------------------------------
      1 K     c    0.000000    0.000000    0.000000     1.00000    1.000000    
      2 Zn    c    0.500000 *  0.500000 *  0.500000 *   2.30000    1.000000    
      3 F     c    0.500000 *  0.500000 *  0.000000 *   0.37800    1.000000    
      4 F     c    0.000000 *  0.500000 *  0.500000 *   0.37800    1.000000    
      5 F     c    0.500000 *  0.000000 *  0.500000 *   0.37800    1.000000    
      6 F     s    0.500000 *  0.500000 *  0.000000 *  -1.47800    1.000000    
      7 F     s    0.000000 *  0.500000 *  0.500000 *  -1.47800    1.000000    
      8 F     s    0.500000 *  0.000000 *  0.500000 *  -1.47800    1.000000    
--------------------------------------------------------------------------------



********************************************************************************
*  General input information                                                   *
********************************************************************************

  Species output for all configurations : 

--------------------------------------------------------------------------------
  Species    Type    Atomic    Atomic    Charge       Radii (Angs)     Library
                     Number     Mass       (e)     Cova   Ionic  VDW   Symbol
--------------------------------------------------------------------------------
    K        Core       19      39.10   1.000000   1.330  0.000  2.800          
    Zn       Core       30      65.39   2.300000   1.450  0.000  2.160          
    F        Core        9      19.00   0.378000   0.710  0.000  1.300          
    F        Shell       9       0.00  -1.478000   0.710  0.000  1.300          
--------------------------------------------------------------------------------


  Lattice summation method               =    Ewald          (3-D)
                                         =    Parry          (2-D)
                                         =    Saunders et al (1-D)
  Accuracy factor for lattice sums       =   12.000


  Time limit = Infinity

  Maximum range for interatomic potentials =    100000.000000 Angstroms

  General interatomic potentials :

--------------------------------------------------------------------------------
Atom  Types   Potential         A         B         C         D     Cutoffs(Ang)
  1     2                                                            Min    Max 
--------------------------------------------------------------------------------
K    c K    c Buckingham    0.219E+04 0.192      0.00      0.00     0.000 10.000
Zn   c F    s Buckingham    0.148E+04 0.266      0.00      0.00     0.000 10.000
F    s F    s Buckingham     912.     0.271      40.0      0.00     0.000 10.000
K    c F    s Buckingham    0.352E+04 0.267      0.00      0.00     0.000 10.000
F    c F    s Spring (c-s)   28.0      0.00      0.00      0.00     0.000  0.800
--------------------------------------------------------------------------------

********************************************************************************
*  Output for configuration   1                                                *
********************************************************************************


  Components of energy : 

--------------------------------------------------------------------------------
  Interatomic potentials     =           3.31142283 eV
  Monopole - monopole (real) =         -13.08899414 eV
  Monopole - monopole (recip)=         -39.64687810 eV
  Monopole - monopole (total)=         -52.73587225 eV
--------------------------------------------------------------------------------
  Total lattice energy       =         -49.42444942 eV
--------------------------------------------------------------------------------
  Total lattice energy       =           -4768.7038 kJ/(mole unit cells)
--------------------------------------------------------------------------------


  Number of variables =       27

  Maximum number of calculations  =          1000
  Maximum Hessian update interval =            10
  Maximum step size               =   1.000000000
  Maximum parameter tolerance     =   0.000010000
  Maximum function  tolerance     =   0.000010000
  Maximum gradient  tolerance     =   0.001000000
  Maximum gradient  component     =   0.010000000

  Symmetry not applied to optimisation

  Cell parameters to be optimised using strains

  Newton-Raphson optimiser to be used

  BFGS hessian update to be used

  Start of bulk optimisation :

  Cycle:      0 Energy:       -49.424449  Gnorm:      0.478299  CPU:    0.003
  ** Hessian calculated **
  Cycle:      1 Energy:       -50.401199  Gnorm:      0.137676  CPU:    0.005
  Cycle:      2 Energy:       -50.446317  Gnorm:      0.049057  CPU:    0.006
  Cycle:      3 Energy:       -50.453775  Gnorm:      0.000051  CPU:    0.008


  **** Optimisation achieved ****


  Final energy =     -50.45377454 eV
  Final Gnorm  =       0.00000136

  Components of energy : 

--------------------------------------------------------------------------------
  Interatomic potentials     =           6.83596398 eV
  Monopole - monopole (real) =         -14.21925949 eV
  Monopole - monopole (recip)=         -43.07047903 eV
  Monopole - monopole (total)=         -57.28973852 eV
--------------------------------------------------------------------------------
  Total lattice energy       =         -50.45377454 eV
--------------------------------------------------------------------------------
  Total lattice energy       =           -4868.0180 kJ/(mole unit cells)
--------------------------------------------------------------------------------

  Final fractional coordinates of atoms :

--------------------------------------------------------------------------------
   No.  Atomic        x           y          z          Radius
        Label       (Frac)      (Frac)     (Frac)       (Angs) 
--------------------------------------------------------------------------------
     1  K     c     0.000000    0.000000    0.000000    0.000000
     2  Zn    c     0.500000    0.500000    0.500000    0.000000
     3  F     c     0.500000    0.500000    0.000000    0.000000
     4  F     c     1.000000    0.500000    0.500000    0.000000
     5  F     c     0.500000    0.000000    0.500000    0.000000
     6  F     s     0.500000    0.500000    0.000000    0.000000
     7  F     s     1.000000    0.500000    0.500000    0.000000
     8  F     s     0.500000    0.000000    0.500000    0.000000
--------------------------------------------------------------------------------

  Final Cartesian lattice vectors (Angstroms) :

        3.866149    0.000000    0.000000
        0.000000    3.866149    0.000000
        0.000000    0.000000    3.866149


  Final cell parameters and derivatives :

--------------------------------------------------------------------------------
       a            3.866149 Angstrom     dE/de1(xx)    -0.000021 eV/strain
       b            3.866149 Angstrom     dE/de2(yy)    -0.000021 eV/strain
       c            3.866149 Angstrom     dE/de3(zz)    -0.000021 eV/strain
       alpha       90.000000 Degrees      dE/de4(yz)     0.000000 eV/strain
       beta        90.000000 Degrees      dE/de5(xz)     0.000000 eV/strain
       gamma       90.000000 Degrees      dE/de6(xy)     0.000000 eV/strain
--------------------------------------------------------------------------------

  Primitive cell volume =            57.787746 Angs**3

  Density of cell =      4.640512 g/cm**3

  Non-primitive cell volume =            57.787746 Angs**3


  Final internal derivatives :

--------------------------------------------------------------------------------
   No.  Atomic          a             b             c           Radius
        Label          (eV)          (eV)          (eV)        (eV/Angs)
--------------------------------------------------------------------------------
      1 K     c       0.000000      0.000000      0.000000      0.000000
      2 Zn    c       0.000000      0.000000      0.000000      0.000000
      3 F     c       0.000000      0.000000      0.000000      0.000000
      4 F     c       0.000000      0.000000      0.000000      0.000000
      5 F     c       0.000000      0.000000      0.000000      0.000000
      6 F     s       0.000000      0.000000      0.000000      0.000000
      7 F     s       0.000000      0.000000      0.000000      0.000000
      8 F     s       0.000000      0.000000      0.000000      0.000000
--------------------------------------------------------------------------------
  Maximum abs         0.000000      0.000000      0.000000      0.000000
--------------------------------------------------------------------------------


  Born effective charge tensors : 

-------------------------------------------------------------------------------
  Atom             x           y             z
-------------------------------------------------------------------------------
   1 K     x       0.9421      0.0000      0.0000
           y       0.0000      0.9421      0.0000
           z       0.0000      0.0000      0.9421
-------------------------------------------------------------------------------
   2 Zn    x       1.7926      0.0000      0.0000
           y       0.0000      1.7926      0.0000
           z       0.0000      0.0000      1.7926
-------------------------------------------------------------------------------
   3 F     x      -0.8777      0.0000      0.0000
           y       0.0000     -0.8777      0.0000
           z       0.0000      0.0000     -0.9793
-------------------------------------------------------------------------------
   4 F     x      -0.9793      0.0000      0.0000
           y       0.0000     -0.8777      0.0000
           z       0.0000      0.0000     -0.8777
-------------------------------------------------------------------------------
   5 F     x      -0.8777      0.0000      0.0000
           y       0.0000     -0.9793      0.0000
           z       0.0000      0.0000     -0.8777
-------------------------------------------------------------------------------




  Elastic Constant Matrix: (Units=GPa)

-------------------------------------------------------------------------------
  Indices      1         2         3         4         5         6    
-------------------------------------------------------------------------------
       1    206.2910   65.0528   65.0528    0.0000    0.0000    0.0000
       2     65.0528  206.2910   65.0528    0.0000    0.0000    0.0000
       3     65.0528   65.0528  206.2910    0.0000    0.0000    0.0000
       4      0.0000    0.0000    0.0000   65.0527    0.0000    0.0000
       5      0.0000    0.0000    0.0000    0.0000   65.0527    0.0000
       6      0.0000    0.0000    0.0000    0.0000    0.0000   65.0527
-------------------------------------------------------------------------------


  Elastic Compliance Matrix: (Units=1/GPa)

-------------------------------------------------------------------------------
  Indices      1         2         3         4         5         6    
-------------------------------------------------------------------------------
       1    0.005711 -0.001369 -0.001369  0.000000  0.000000  0.000000
       2   -0.001369  0.005711 -0.001369  0.000000  0.000000  0.000000
       3   -0.001369 -0.001369  0.005711  0.000000  0.000000  0.000000
       4    0.000000  0.000000  0.000000  0.015372  0.000000  0.000000
       5    0.000000  0.000000  0.000000  0.000000  0.015372  0.000000
       6    0.000000  0.000000  0.000000  0.000000  0.000000  0.015372
-------------------------------------------------------------------------------

  Mechanical properties :

-------------------------------------------------------------------------------
  Convention :                    Reuss         Voigt         Hill
-------------------------------------------------------------------------------
  Bulk  Modulus (GPa)     =     112.13217     112.13217     112.13217
  Shear Modulus (GPa)     =      67.17053      67.27926      67.22490
-------------------------------------------------------------------------------
  Velocity S-wave (km/s)  =       3.80458       3.80766       3.80612
  Velocity P-wave (km/s)  =       6.59269       6.59505       6.59387
-------------------------------------------------------------------------------
  Compressibility (1/GPa) =    0.00891805
-------------------------------------------------------------------------------
  Stress axis :                     x             y             z
-------------------------------------------------------------------------------
  Youngs Moduli (GPa)     =     175.09911     175.09911     175.09911
-------------------------------------------------------------------------------
  Poissons Ratio (x)      =                     0.23974       0.23974
  Poissons Ratio (y)      =       0.23974                     0.23974
  Poissons Ratio (z)      =       0.23974       0.23974
-------------------------------------------------------------------------------


  Piezoelectric Strain Matrix: (Units=C/m**2)

-------------------------------------------------------------------------------
  Indices      1         2         3         4         5         6    
-------------------------------------------------------------------------------
       x     0.00000   0.00000   0.00000   0.00000   0.00000   0.00000
       y     0.00000   0.00000   0.00000   0.00000   0.00000   0.00000
       z     0.00000   0.00000   0.00000   0.00000   0.00000   0.00000
-------------------------------------------------------------------------------


  Piezoelectric Stress Matrix: (Units=10**-11 C/N)

-------------------------------------------------------------------------------
  Indices      1         2         3         4         5         6    
-------------------------------------------------------------------------------
       x     0.00000   0.00000   0.00000   0.00000   0.00000   0.00000
       y     0.00000   0.00000   0.00000   0.00000   0.00000   0.00000
       z     0.00000   0.00000   0.00000   0.00000   0.00000   0.00000
-------------------------------------------------------------------------------


  Static dielectric constant tensor : 

-------------------------------------------------------------------------------
              x         y         z
-------------------------------------------------------------------------------
       x     3.75845   0.00000   0.00000
       y     0.00000   3.75845   0.00000
       z     0.00000   0.00000   3.75845
--------------------------------------------------------------------------------

  High frequency dielectric constant tensor : 

-------------------------------------------------------------------------------
              x         y         z
-------------------------------------------------------------------------------
       x     1.68331   0.00000   0.00000
       y     0.00000   1.68331   0.00000
       z     0.00000   0.00000   1.68331
-------------------------------------------------------------------------------

  Static refractive indices : 

-------------------------------------------------------------------------------
    1 =    1.93867      2 =    1.93867      3 =    1.93867
-------------------------------------------------------------------------------

  High frequency refractive indices : 

-------------------------------------------------------------------------------
    1 =    1.29742      2 =    1.29742      3 =    1.29742
-------------------------------------------------------------------------------


  Time to end of optimisation =       0.0118 seconds


  Peak dynamic memory used =       0.50 MB 


  Timing analysis for GULP :

--------------------------------------------------------------------------------
  Task / Subroutine                                          Time (Seconds)
--------------------------------------------------------------------------------
  Calculation of reciprocal space energy and derivatives          0.0011
  Calculation of real space energy and derivatives                0.0078
--------------------------------------------------------------------------------
  Total CPU time                                                  0.0119
--------------------------------------------------------------------------------


  CIF file written as perov.cif                                               


  Job Finished at 13:59.59 22nd February   2017                               

