********************************************************************************
*                       GENERAL UTILITY LATTICE PROGRAM                        *
*                                 Julian Gale                                  *
*                      Nanochemistry Research Institute                        *
*                           Department of Chemistry                            *
*                    Curtin University, Western Australia                      *
********************************************************************************
* Version = 4.3.2 * Last modified =  3rd March 2015                            *
********************************************************************************
*  optimise     - perform optimisation run                                     *
*  conp         - constant pressure calculation                                *
*  property     - calculate properties for final geometry                      *
********************************************************************************

  Job Started  at 13:59.58 22nd February   2017                               

  Number of CPUs =     1


  Total number of configurations input =   1

********************************************************************************
*  Input for Configuration =   1                                               *
********************************************************************************

  Formula = KZnF3                                                       

  Number of irreducible atoms/shells =       8


  Total number atoms/shells =       8

  Dimensionality = 3               :  Bulk   



  Cartesian lattice vectors (Angstroms) :

        4.200000    0.000000    0.000000
        0.000000    4.200000    0.000000
        0.000000    0.000000    4.200000

  Cell parameters (Angstroms/Degrees):

  a =       4.2000    alpha =  90.0000
  b =       4.2000    beta  =  90.0000
  c =       4.2000    gamma =  90.0000

  Initial cell volume =          74.088000 Angs**3

  Temperature of configuration =  0.000     K 

  Pressure of configuration =         0.000 GPa 

  Fractional coordinates of asymmetric unit :

--------------------------------------------------------------------------------
   No.  Atomic       x           y          z         Charge      Occupancy
        Label      (Frac)      (Frac)     (Frac)        (e)         (Frac)  
--------------------------------------------------------------------------------
      1 K     c    0.000000    0.000000    0.000000     0.50000    1.000000    
      2 Zn    c    0.500000 *  0.500000 *  0.500000 *   2.10000    1.000000    
      3 F     c    0.500000 *  0.500000 *  0.000000 *   0.37800    1.000000    
      4 F     c    0.000000 *  0.500000 *  0.500000 *   0.37800    1.000000    
      5 F     c    0.500000 *  0.000000 *  0.500000 *   0.37800    1.000000    
      6 F     s    0.500000 *  0.500000 *  0.000000 *  -1.24467    1.000000    
      7 F     s    0.000000 *  0.500000 *  0.500000 *  -1.24467    1.000000    
      8 F     s    0.500000 *  0.000000 *  0.500000 *  -1.24467    1.000000    
--------------------------------------------------------------------------------



********************************************************************************
*  General input information                                                   *
********************************************************************************

  Species output for all configurations : 

--------------------------------------------------------------------------------
  Species    Type    Atomic    Atomic    Charge       Radii (Angs)     Library
                     Number     Mass       (e)     Cova   Ionic  VDW   Symbol
--------------------------------------------------------------------------------
    K        Core       19      39.10   0.500000   1.330  0.000  2.800          
    Zn       Core       30      65.39   2.100000   1.450  0.000  2.160          
    F        Core        9      19.00   0.378000   0.710  0.000  1.300          
    F        Shell       9       0.00  -1.244667   0.710  0.000  1.300          
--------------------------------------------------------------------------------


  Lattice summation method               =    Ewald          (3-D)
                                         =    Parry          (2-D)
                                         =    Saunders et al (1-D)
  Accuracy factor for lattice sums       =   12.000


  Time limit = Infinity

  Maximum range for interatomic potentials =    100000.000000 Angstroms

  General interatomic potentials :

--------------------------------------------------------------------------------
Atom  Types   Potential         A         B         C         D     Cutoffs(Ang)
  1     2                                                            Min    Max 
--------------------------------------------------------------------------------
K    c K    c Buckingham    0.219E+04 0.192      0.00      0.00     0.000 10.000
Zn   c F    s Buckingham    0.148E+04 0.266      0.00      0.00     0.000 10.000
F    s F    s Buckingham     912.     0.271      40.0      0.00     0.000 10.000
K    c F    s Buckingham    0.352E+04 0.267      0.00      0.00     0.000 10.000
F    c F    s Spring (c-s)   19.9      0.00      0.00      0.00     0.000  0.800
--------------------------------------------------------------------------------

********************************************************************************
*  Output for configuration   1                                                *
********************************************************************************


  Components of energy : 

--------------------------------------------------------------------------------
  Interatomic potentials     =           3.31142283 eV
  Monopole - monopole (real) =          -9.11995516 eV
  Monopole - monopole (recip)=         -27.50058881 eV
  Monopole - monopole (total)=         -36.62054397 eV
--------------------------------------------------------------------------------
  Total lattice energy       =         -33.30912114 eV
--------------------------------------------------------------------------------
  Total lattice energy       =           -3213.8210 kJ/(mole unit cells)
--------------------------------------------------------------------------------


  Number of variables =       27

  Maximum number of calculations  =          1000
  Maximum Hessian update interval =            10
  Maximum step size               =   1.000000000
  Maximum parameter tolerance     =   0.000010000
  Maximum function  tolerance     =   0.000010000
  Maximum gradient  tolerance     =   0.001000000
  Maximum gradient  component     =   0.010000000

  Symmetry not applied to optimisation

  Cell parameters to be optimised using strains

  Newton-Raphson optimiser to be used

  BFGS hessian update to be used

  Start of bulk optimisation :

  Cycle:      0 Energy:       -33.309121  Gnorm:      0.133699  CPU:    0.003
  ** Hessian calculated **
  Cycle:      1 Energy:       -33.397933  Gnorm:      0.011595  CPU:    0.005
  Cycle:      2 Energy:       -33.397933  Gnorm:      0.011595  CPU:    0.006
  ** Hessian calculated **
  Cycle:      3 Energy:       -33.398198  Gnorm:      0.008476  CPU:    0.009
  Cycle:      4 Energy:       -33.398299  Gnorm:      0.006923  CPU:    0.012
  Cycle:      5 Energy:       -33.398322  Gnorm:      0.006535  CPU:    0.013
  Cycle:      6 Energy:       -33.398327  Gnorm:      0.006438  CPU:    0.015
  Cycle:      7 Energy:       -33.398328  Gnorm:      0.006414  CPU:    0.016
  Cycle:      8 Energy:       -33.398328  Gnorm:      0.006414  CPU:    0.018
  ** Hessian calculated **
  Cycle:      9 Energy:       -33.398328  Gnorm:      0.006414  CPU:    0.021
  ** Hessian calculated **


  **** Conditions for a minimum have not been satisfied. However ****
  **** no lower point can be found - treat results with caution  ****
  **** unless gradient norm is small (less than 0.1)             ****


  Final energy =     -33.39832818 eV
  Final Gnorm  =       0.00641418

  Components of energy : 

--------------------------------------------------------------------------------
  Interatomic potentials     =           4.27636674 eV
  Monopole - monopole (real) =          -9.38248019 eV
  Monopole - monopole (recip)=         -28.29221474 eV
  Monopole - monopole (total)=         -37.67469493 eV
--------------------------------------------------------------------------------
  Total lattice energy       =         -33.39832818 eV
--------------------------------------------------------------------------------
  Total lattice energy       =           -3222.4281 kJ/(mole unit cells)
--------------------------------------------------------------------------------

  Final fractional coordinates of atoms :

--------------------------------------------------------------------------------
   No.  Atomic        x           y          z          Radius
        Label       (Frac)      (Frac)     (Frac)       (Angs) 
--------------------------------------------------------------------------------
     1  K     c     0.000000    0.000000    0.000000    0.000000
     2  Zn    c     0.500000    0.500000    0.500000    0.000000
     3  F     c     0.500000    0.500000    0.000000    0.000000
     4  F     c     0.000000    0.500000    0.500000    0.000000
     5  F     c     0.500000    0.000000    0.500000    0.000000
     6  F     s     0.500000    0.500000    0.000000    0.000000
     7  F     s     0.000000    0.500000    0.500000    0.000000
     8  F     s     0.500000    0.000000    0.500000    0.000000
--------------------------------------------------------------------------------

  Final Cartesian lattice vectors (Angstroms) :

        4.082483    0.000000    0.000000
        0.000000    4.082483    0.000000
        0.000000    0.000000    4.082483


  Final cell parameters and derivatives :

--------------------------------------------------------------------------------
       a            4.082483 Angstrom     dE/de1(xx)    -0.099987 eV/strain
       b            4.082483 Angstrom     dE/de2(yy)    -0.099987 eV/strain
       c            4.082483 Angstrom     dE/de3(zz)    -0.099987 eV/strain
       alpha       90.000000 Degrees      dE/de4(yz)     0.000000 eV/strain
       beta        90.000000 Degrees      dE/de5(xz)     0.000000 eV/strain
       gamma       90.000000 Degrees      dE/de6(xy)     0.000000 eV/strain
--------------------------------------------------------------------------------

  Primitive cell volume =            68.041364 Angs**3

  Density of cell =      3.941201 g/cm**3

  Non-primitive cell volume =            68.041364 Angs**3


  Final internal derivatives :

--------------------------------------------------------------------------------
   No.  Atomic          a             b             c           Radius
        Label          (eV)          (eV)          (eV)        (eV/Angs)
--------------------------------------------------------------------------------
      1 K     c       0.000000      0.000000      0.000000      0.000000
      2 Zn    c       0.000000      0.000000      0.000000      0.000000
      3 F     c       0.000000      0.000000      0.000000      0.000000
      4 F     c       0.000000      0.000000      0.000000      0.000000
      5 F     c       0.000000      0.000000      0.000000      0.000000
      6 F     s       0.000000      0.000000      0.000000      0.000000
      7 F     s       0.000000      0.000000      0.000000      0.000000
      8 F     s       0.000000      0.000000      0.000000      0.000000
--------------------------------------------------------------------------------
  Maximum abs         0.000000      0.000000      0.000000      0.000000
--------------------------------------------------------------------------------


  Born effective charge tensors : 

-------------------------------------------------------------------------------
  Atom             x           y             z
-------------------------------------------------------------------------------
   1 K     x       0.4095      0.0000      0.0000
           y       0.0000      0.4095      0.0000
           z       0.0000      0.0000      0.4095
-------------------------------------------------------------------------------
   2 Zn    x       1.6790      0.0000      0.0000
           y       0.0000      1.6790      0.0000
           z       0.0000      0.0000      1.6790
-------------------------------------------------------------------------------
   3 F     x      -0.6572      0.0000      0.0000
           y       0.0000     -0.6572      0.0000
           z       0.0000      0.0000     -0.7740
-------------------------------------------------------------------------------
   4 F     x      -0.7740      0.0000      0.0000
           y       0.0000     -0.6572      0.0000
           z       0.0000      0.0000     -0.6572
-------------------------------------------------------------------------------
   5 F     x      -0.6572      0.0000      0.0000
           y       0.0000     -0.7740      0.0000
           z       0.0000      0.0000     -0.6572
-------------------------------------------------------------------------------




  Elastic Constant Matrix: (Units=GPa)

-------------------------------------------------------------------------------
  Indices      1         2         3         4         5         6    
-------------------------------------------------------------------------------
       1    135.5812   33.2184   33.2184    0.0000    0.0000    0.0000
       2     33.2184  135.5812   33.2184    0.0000    0.0000    0.0000
       3     33.2184   33.2184  135.5812    0.0000    0.0000    0.0000
       4      0.0000    0.0000    0.0000   32.9829    0.0000    0.0000
       5      0.0000    0.0000    0.0000    0.0000   32.9829    0.0000
       6      0.0000    0.0000    0.0000    0.0000    0.0000   32.9829
-------------------------------------------------------------------------------


  Elastic Compliance Matrix: (Units=1/GPa)

-------------------------------------------------------------------------------
  Indices      1         2         3         4         5         6    
-------------------------------------------------------------------------------
       1    0.008163 -0.001606 -0.001606  0.000000  0.000000  0.000000
       2   -0.001606  0.008163 -0.001606  0.000000  0.000000  0.000000
       3   -0.001606 -0.001606  0.008163  0.000000  0.000000  0.000000
       4    0.000000  0.000000  0.000000  0.030319  0.000000  0.000000
       5    0.000000  0.000000  0.000000  0.000000  0.030319  0.000000
       6    0.000000  0.000000  0.000000  0.000000  0.000000  0.030319
-------------------------------------------------------------------------------

  Mechanical properties :

-------------------------------------------------------------------------------
  Convention :                    Reuss         Voigt         Hill
-------------------------------------------------------------------------------
  Bulk  Modulus (GPa)     =      67.33932      67.33932      67.33932
  Shear Modulus (GPa)     =      38.45183      40.26233      39.35708
-------------------------------------------------------------------------------
  Velocity S-wave (km/s)  =       3.12352       3.19621       3.16007
  Velocity P-wave (km/s)  =       5.48584       5.54139       5.51369
-------------------------------------------------------------------------------
  Compressibility (1/GPa) =    0.01485017
-------------------------------------------------------------------------------
  Stress axis :                     x             y             z
-------------------------------------------------------------------------------
  Youngs Moduli (GPa)     =     122.50698     122.50698     122.50698
-------------------------------------------------------------------------------
  Poissons Ratio (x)      =                     0.19679       0.19679
  Poissons Ratio (y)      =       0.19679                     0.19679
  Poissons Ratio (z)      =       0.19679       0.19679
-------------------------------------------------------------------------------


  Piezoelectric Strain Matrix: (Units=C/m**2)

-------------------------------------------------------------------------------
  Indices      1         2         3         4         5         6    
-------------------------------------------------------------------------------
       x     0.00000   0.00000   0.00000   0.00000   0.00000   0.00000
       y     0.00000   0.00000   0.00000   0.00000   0.00000   0.00000
       z     0.00000   0.00000   0.00000   0.00000   0.00000   0.00000
-------------------------------------------------------------------------------


  Piezoelectric Stress Matrix: (Units=10**-11 C/N)

-------------------------------------------------------------------------------
  Indices      1         2         3         4         5         6    
-------------------------------------------------------------------------------
       x     0.00000   0.00000   0.00000   0.00000   0.00000   0.00000
       y     0.00000   0.00000   0.00000   0.00000   0.00000   0.00000
       z     0.00000   0.00000   0.00000   0.00000   0.00000   0.00000
-------------------------------------------------------------------------------


  Static dielectric constant tensor : 

-------------------------------------------------------------------------------
              x         y         z
-------------------------------------------------------------------------------
       x     2.98421   0.00000   0.00000
       y     0.00000   2.98421   0.00000
       z     0.00000   0.00000   2.98421
--------------------------------------------------------------------------------

  High frequency dielectric constant tensor : 

-------------------------------------------------------------------------------
              x         y         z
-------------------------------------------------------------------------------
       x     1.57460   0.00000   0.00000
       y     0.00000   1.57460   0.00000
       z     0.00000   0.00000   1.57460
-------------------------------------------------------------------------------

  Static refractive indices : 

-------------------------------------------------------------------------------
    1 =    1.72749      2 =    1.72749      3 =    1.72749
-------------------------------------------------------------------------------

  High frequency refractive indices : 

-------------------------------------------------------------------------------
    1 =    1.25483      2 =    1.25483      3 =    1.25483
-------------------------------------------------------------------------------


  Time to end of optimisation =       0.0262 seconds


  Peak dynamic memory used =       0.50 MB 


  Timing analysis for GULP :

--------------------------------------------------------------------------------
  Task / Subroutine                                          Time (Seconds)
--------------------------------------------------------------------------------
  Calculation of reciprocal space energy and derivatives          0.0029
  Calculation of real space energy and derivatives                0.0201
--------------------------------------------------------------------------------
  Total CPU time                                                  0.0262
--------------------------------------------------------------------------------


  CIF file written as perov.cif                                               


  Job Finished at 13:59.58 22nd February   2017                               

