********************************************************************************
*                       GENERAL UTILITY LATTICE PROGRAM                        *
*                                 Julian Gale                                  *
*                      Nanochemistry Research Institute                        *
*                           Department of Chemistry                            *
*                    Curtin University, Western Australia                      *
********************************************************************************
* Version = 4.3.2 * Last modified =  3rd March 2015                            *
********************************************************************************
*  optimise     - perform optimisation run                                     *
*  conp         - constant pressure calculation                                *
*  property     - calculate properties for final geometry                      *
********************************************************************************

  Job Started  at 14:00.00 22nd February   2017                               

  Number of CPUs =     1


  Total number of configurations input =   1

********************************************************************************
*  Input for Configuration =   1                                               *
********************************************************************************

  Formula = KZnF3                                                       

  Number of irreducible atoms/shells =       8


  Total number atoms/shells =       8

  Dimensionality = 3               :  Bulk   



  Cartesian lattice vectors (Angstroms) :

        4.200000    0.000000    0.000000
        0.000000    4.200000    0.000000
        0.000000    0.000000    4.200000

  Cell parameters (Angstroms/Degrees):

  a =       4.2000    alpha =  90.0000
  b =       4.2000    beta  =  90.0000
  c =       4.2000    gamma =  90.0000

  Initial cell volume =          74.088000 Angs**3

  Temperature of configuration =  0.000     K 

  Pressure of configuration =         0.000 GPa 

  Fractional coordinates of asymmetric unit :

--------------------------------------------------------------------------------
   No.  Atomic       x           y          z         Charge      Occupancy
        Label      (Frac)      (Frac)     (Frac)        (e)         (Frac)  
--------------------------------------------------------------------------------
      1 K     c    0.000000    0.000000    0.000000     1.40000    1.000000    
      2 Zn    c    0.500000 *  0.500000 *  0.500000 *   1.50000    1.000000    
      3 F     c    0.500000 *  0.500000 *  0.000000 *   0.37800    1.000000    
      4 F     c    0.000000 *  0.500000 *  0.500000 *   0.37800    1.000000    
      5 F     c    0.500000 *  0.000000 *  0.500000 *   0.37800    1.000000    
      6 F     s    0.500000 *  0.500000 *  0.000000 *  -1.34467    1.000000    
      7 F     s    0.000000 *  0.500000 *  0.500000 *  -1.34467    1.000000    
      8 F     s    0.500000 *  0.000000 *  0.500000 *  -1.34467    1.000000    
--------------------------------------------------------------------------------



********************************************************************************
*  General input information                                                   *
********************************************************************************

  Species output for all configurations : 

--------------------------------------------------------------------------------
  Species    Type    Atomic    Atomic    Charge       Radii (Angs)     Library
                     Number     Mass       (e)     Cova   Ionic  VDW   Symbol
--------------------------------------------------------------------------------
    K        Core       19      39.10   1.400000   1.330  0.000  2.800          
    Zn       Core       30      65.39   1.500000   1.450  0.000  2.160          
    F        Core        9      19.00   0.378000   0.710  0.000  1.300          
    F        Shell       9       0.00  -1.344667   0.710  0.000  1.300          
--------------------------------------------------------------------------------


  Lattice summation method               =    Ewald          (3-D)
                                         =    Parry          (2-D)
                                         =    Saunders et al (1-D)
  Accuracy factor for lattice sums       =   12.000


  Time limit = Infinity

  Maximum range for interatomic potentials =    100000.000000 Angstroms

  General interatomic potentials :

--------------------------------------------------------------------------------
Atom  Types   Potential         A         B         C         D     Cutoffs(Ang)
  1     2                                                            Min    Max 
--------------------------------------------------------------------------------
K    c K    c Buckingham    0.219E+04 0.192      0.00      0.00     0.000 10.000
Zn   c F    s Buckingham    0.148E+04 0.266      0.00      0.00     0.000 10.000
F    s F    s Buckingham     912.     0.271      40.0      0.00     0.000 10.000
K    c F    s Buckingham    0.352E+04 0.267      0.00      0.00     0.000 10.000
F    c F    s Spring (c-s)   23.2      0.00      0.00      0.00     0.000  0.800
--------------------------------------------------------------------------------

********************************************************************************
*  Output for configuration   1                                                *
********************************************************************************


  Components of energy : 

--------------------------------------------------------------------------------
  Interatomic potentials     =           3.31142283 eV
  Monopole - monopole (real) =          -8.20953964 eV
  Monopole - monopole (recip)=         -27.73562109 eV
  Monopole - monopole (total)=         -35.94516073 eV
--------------------------------------------------------------------------------
  Total lattice energy       =         -32.63373790 eV
--------------------------------------------------------------------------------
  Total lattice energy       =           -3148.6569 kJ/(mole unit cells)
--------------------------------------------------------------------------------


  Number of variables =       27

  Maximum number of calculations  =          1000
  Maximum Hessian update interval =            10
  Maximum step size               =   1.000000000
  Maximum parameter tolerance     =   0.000010000
  Maximum function  tolerance     =   0.000010000
  Maximum gradient  tolerance     =   0.001000000
  Maximum gradient  component     =   0.010000000

  Symmetry not applied to optimisation

  Cell parameters to be optimised using strains

  Newton-Raphson optimiser to be used

  BFGS hessian update to be used

  Start of bulk optimisation :

  Cycle:      0 Energy:       -32.633738  Gnorm:      0.119257  CPU:    0.003
  ** Hessian calculated **
  Cycle:      1 Energy:       -32.704025  Gnorm:      0.001414  CPU:    0.005


  **** Optimisation achieved ****


  Final energy =     -32.70403319 eV
  Final Gnorm  =       0.00015663

  Components of energy : 

--------------------------------------------------------------------------------
  Interatomic potentials     =           4.12913120 eV
  Monopole - monopole (real) =          -8.41235140 eV
  Monopole - monopole (recip)=         -28.42081300 eV
  Monopole - monopole (total)=         -36.83316439 eV
--------------------------------------------------------------------------------
  Total lattice energy       =         -32.70403319 eV
--------------------------------------------------------------------------------
  Total lattice energy       =           -3155.4393 kJ/(mole unit cells)
--------------------------------------------------------------------------------

  Final fractional coordinates of atoms :

--------------------------------------------------------------------------------
   No.  Atomic        x           y          z          Radius
        Label       (Frac)      (Frac)     (Frac)       (Angs) 
--------------------------------------------------------------------------------
     1  K     c     0.000000    0.000000    0.000000    0.000000
     2  Zn    c     0.500000    0.500000    0.500000    0.000000
     3  F     c     0.500000    0.500000    1.000000    0.000000
     4  F     c     0.000000    0.500000    0.500000    0.000000
     5  F     c     0.500000    0.000000    0.500000    0.000000
     6  F     s     0.500000    0.500000    1.000000    0.000000
     7  F     s     0.000000    0.500000    0.500000    0.000000
     8  F     s     0.500000    0.000000    0.500000    0.000000
--------------------------------------------------------------------------------

  Final Cartesian lattice vectors (Angstroms) :

        4.098743    0.000000    0.000000
        0.000000    4.098743    0.000000
        0.000000    0.000000    4.098743


  Final cell parameters and derivatives :

--------------------------------------------------------------------------------
       a            4.098743 Angstrom     dE/de1(xx)     0.002442 eV/strain
       b            4.098743 Angstrom     dE/de2(yy)     0.002442 eV/strain
       c            4.098743 Angstrom     dE/de3(zz)     0.002442 eV/strain
       alpha       90.000000 Degrees      dE/de4(yz)     0.000000 eV/strain
       beta        90.000000 Degrees      dE/de5(xz)     0.000000 eV/strain
       gamma       90.000000 Degrees      dE/de6(xy)     0.000000 eV/strain
--------------------------------------------------------------------------------

  Primitive cell volume =            68.857629 Angs**3

  Density of cell =      3.894481 g/cm**3

  Non-primitive cell volume =            68.857629 Angs**3


  Final internal derivatives :

--------------------------------------------------------------------------------
   No.  Atomic          a             b             c           Radius
        Label          (eV)          (eV)          (eV)        (eV/Angs)
--------------------------------------------------------------------------------
      1 K     c       0.000000      0.000000      0.000000      0.000000
      2 Zn    c       0.000000      0.000000      0.000000      0.000000
      3 F     c       0.000000      0.000000      0.000000      0.000000
      4 F     c       0.000000      0.000000      0.000000      0.000000
      5 F     c       0.000000      0.000000      0.000000      0.000000
      6 F     s       0.000000      0.000000      0.000000      0.000000
      7 F     s       0.000000      0.000000      0.000000      0.000000
      8 F     s       0.000000      0.000000      0.000000      0.000000
--------------------------------------------------------------------------------
  Maximum abs         0.000000      0.000000      0.000000      0.000000
--------------------------------------------------------------------------------


  Born effective charge tensors : 

-------------------------------------------------------------------------------
  Atom             x           y             z
-------------------------------------------------------------------------------
   1 K     x       1.5145      0.0000      0.0000
           y       0.0000      1.5145      0.0000
           z       0.0000      0.0000      1.5145
-------------------------------------------------------------------------------
   2 Zn    x       1.0191      0.0000      0.0000
           y       0.0000      1.0191      0.0000
           z       0.0000      0.0000      1.0191
-------------------------------------------------------------------------------
   3 F     x      -0.9233      0.0000      0.0000
           y       0.0000     -0.9233      0.0000
           z       0.0000      0.0000     -0.6870
-------------------------------------------------------------------------------
   4 F     x      -0.6870      0.0000      0.0000
           y       0.0000     -0.9233      0.0000
           z       0.0000      0.0000     -0.9233
-------------------------------------------------------------------------------
   5 F     x      -0.9233      0.0000      0.0000
           y       0.0000     -0.6870      0.0000
           z       0.0000      0.0000     -0.9233
-------------------------------------------------------------------------------




  Elastic Constant Matrix: (Units=GPa)

-------------------------------------------------------------------------------
  Indices      1         2         3         4         5         6    
-------------------------------------------------------------------------------
       1    142.5850   25.8330   25.8330    0.0000    0.0000    0.0000
       2     25.8330  142.5850   25.8330    0.0000    0.0000    0.0000
       3     25.8330   25.8330  142.5850    0.0000    0.0000    0.0000
       4      0.0000    0.0000    0.0000   25.8386    0.0000    0.0000
       5      0.0000    0.0000    0.0000    0.0000   25.8386    0.0000
       6      0.0000    0.0000    0.0000    0.0000    0.0000   25.8386
-------------------------------------------------------------------------------


  Elastic Compliance Matrix: (Units=1/GPa)

-------------------------------------------------------------------------------
  Indices      1         2         3         4         5         6    
-------------------------------------------------------------------------------
       1    0.007426 -0.001139 -0.001139  0.000000  0.000000  0.000000
       2   -0.001139  0.007426 -0.001139  0.000000  0.000000  0.000000
       3   -0.001139 -0.001139  0.007426  0.000000  0.000000  0.000000
       4    0.000000  0.000000  0.000000  0.038702  0.000000  0.000000
       5    0.000000  0.000000  0.000000  0.000000  0.038702  0.000000
       6    0.000000  0.000000  0.000000  0.000000  0.000000  0.038702
-------------------------------------------------------------------------------

  Mechanical properties :

-------------------------------------------------------------------------------
  Convention :                    Reuss         Voigt         Hill
-------------------------------------------------------------------------------
  Bulk  Modulus (GPa)     =      64.75030      64.75030      64.75030
  Shear Modulus (GPa)     =      33.25223      38.85359      36.05291
-------------------------------------------------------------------------------
  Velocity S-wave (km/s)  =       2.92204       3.15857       3.04260
  Velocity P-wave (km/s)  =       5.29250       5.47067       5.38232
-------------------------------------------------------------------------------
  Compressibility (1/GPa) =    0.01544394
-------------------------------------------------------------------------------
  Stress axis :                     x             y             z
-------------------------------------------------------------------------------
  Youngs Moduli (GPa)     =     134.66015     134.66015     134.66015
-------------------------------------------------------------------------------
  Poissons Ratio (x)      =                     0.15339       0.15339
  Poissons Ratio (y)      =       0.15339                     0.15339
  Poissons Ratio (z)      =       0.15339       0.15339
-------------------------------------------------------------------------------


  Piezoelectric Strain Matrix: (Units=C/m**2)

-------------------------------------------------------------------------------
  Indices      1         2         3         4         5         6    
-------------------------------------------------------------------------------
       x     0.00000   0.00000   0.00000   0.00000   0.00000   0.00000
       y     0.00000   0.00000   0.00000   0.00000   0.00000   0.00000
       z     0.00000   0.00000   0.00000   0.00000   0.00000   0.00000
-------------------------------------------------------------------------------


  Piezoelectric Stress Matrix: (Units=10**-11 C/N)

-------------------------------------------------------------------------------
  Indices      1         2         3         4         5         6    
-------------------------------------------------------------------------------
       x     0.00000   0.00000   0.00000   0.00000   0.00000   0.00000
       y     0.00000   0.00000   0.00000   0.00000   0.00000   0.00000
       z     0.00000   0.00000   0.00000   0.00000   0.00000   0.00000
-------------------------------------------------------------------------------


  Static dielectric constant tensor : 

-------------------------------------------------------------------------------
              x         y         z
-------------------------------------------------------------------------------
       x    21.36427   0.00000   0.00000
       y     0.00000  21.36427   0.00000
       z     0.00000   0.00000  21.36427
--------------------------------------------------------------------------------

  High frequency dielectric constant tensor : 

-------------------------------------------------------------------------------
              x         y         z
-------------------------------------------------------------------------------
       x     1.59230   0.00000   0.00000
       y     0.00000   1.59230   0.00000
       z     0.00000   0.00000   1.59230
-------------------------------------------------------------------------------

  Static refractive indices : 

-------------------------------------------------------------------------------
    1 =    4.62215      2 =    4.62215      3 =    4.62215
-------------------------------------------------------------------------------

  High frequency refractive indices : 

-------------------------------------------------------------------------------
    1 =    1.26186      2 =    1.26186      3 =    1.26186
-------------------------------------------------------------------------------


  Time to end of optimisation =       0.0086 seconds


  Peak dynamic memory used =       0.50 MB 


  Timing analysis for GULP :

--------------------------------------------------------------------------------
  Task / Subroutine                                          Time (Seconds)
--------------------------------------------------------------------------------
  Calculation of reciprocal space energy and derivatives          0.0008
  Calculation of real space energy and derivatives                0.0049
--------------------------------------------------------------------------------
  Total CPU time                                                  0.0086
--------------------------------------------------------------------------------


  CIF file written as perov.cif                                               


  Job Finished at 14:00.00 22nd February   2017                               

