********************************************************************************
*                       GENERAL UTILITY LATTICE PROGRAM                        *
*                                 Julian Gale                                  *
*                      Nanochemistry Research Institute                        *
*                           Department of Chemistry                            *
*                    Curtin University, Western Australia                      *
********************************************************************************
* Version = 4.3.2 * Last modified =  3rd March 2015                            *
********************************************************************************
*  optimise     - perform optimisation run                                     *
*  conp         - constant pressure calculation                                *
*  property     - calculate properties for final geometry                      *
********************************************************************************

  Job Started  at 14:00.00 22nd February   2017                               

  Number of CPUs =     1


  Total number of configurations input =   1

********************************************************************************
*  Input for Configuration =   1                                               *
********************************************************************************

  Formula = KZnF3                                                       

  Number of irreducible atoms/shells =       8


  Total number atoms/shells =       8

  Dimensionality = 3               :  Bulk   



  Cartesian lattice vectors (Angstroms) :

        4.200000    0.000000    0.000000
        0.000000    4.200000    0.000000
        0.000000    0.000000    4.200000

  Cell parameters (Angstroms/Degrees):

  a =       4.2000    alpha =  90.0000
  b =       4.2000    beta  =  90.0000
  c =       4.2000    gamma =  90.0000

  Initial cell volume =          74.088000 Angs**3

  Temperature of configuration =  0.000     K 

  Pressure of configuration =         0.000 GPa 

  Fractional coordinates of asymmetric unit :

--------------------------------------------------------------------------------
   No.  Atomic       x           y          z         Charge      Occupancy
        Label      (Frac)      (Frac)     (Frac)        (e)         (Frac)  
--------------------------------------------------------------------------------
      1 K     c    0.000000    0.000000    0.000000     1.30000    1.000000    
      2 Zn    c    0.500000 *  0.500000 *  0.500000 *   1.90000    1.000000    
      3 F     c    0.500000 *  0.500000 *  0.000000 *   0.37800    1.000000    
      4 F     c    0.000000 *  0.500000 *  0.500000 *   0.37800    1.000000    
      5 F     c    0.500000 *  0.000000 *  0.500000 *   0.37800    1.000000    
      6 F     s    0.500000 *  0.500000 *  0.000000 *  -1.44467    1.000000    
      7 F     s    0.000000 *  0.500000 *  0.500000 *  -1.44467    1.000000    
      8 F     s    0.500000 *  0.000000 *  0.500000 *  -1.44467    1.000000    
--------------------------------------------------------------------------------



********************************************************************************
*  General input information                                                   *
********************************************************************************

  Species output for all configurations : 

--------------------------------------------------------------------------------
  Species    Type    Atomic    Atomic    Charge       Radii (Angs)     Library
                     Number     Mass       (e)     Cova   Ionic  VDW   Symbol
--------------------------------------------------------------------------------
    K        Core       19      39.10   1.300000   1.330  0.000  2.800          
    Zn       Core       30      65.39   1.900000   1.450  0.000  2.160          
    F        Core        9      19.00   0.378000   0.710  0.000  1.300          
    F        Shell       9       0.00  -1.444667   0.710  0.000  1.300          
--------------------------------------------------------------------------------


  Lattice summation method               =    Ewald          (3-D)
                                         =    Parry          (2-D)
                                         =    Saunders et al (1-D)
  Accuracy factor for lattice sums       =   12.000


  Time limit = Infinity

  Maximum range for interatomic potentials =    100000.000000 Angstroms

  General interatomic potentials :

--------------------------------------------------------------------------------
Atom  Types   Potential         A         B         C         D     Cutoffs(Ang)
  1     2                                                            Min    Max 
--------------------------------------------------------------------------------
K    c K    c Buckingham    0.219E+04 0.192      0.00      0.00     0.000 10.000
Zn   c F    s Buckingham    0.148E+04 0.266      0.00      0.00     0.000 10.000
F    s F    s Buckingham     912.     0.271      40.0      0.00     0.000 10.000
K    c F    s Buckingham    0.352E+04 0.267      0.00      0.00     0.000 10.000
F    c F    s Spring (c-s)   26.8      0.00      0.00      0.00     0.000  0.800
--------------------------------------------------------------------------------

********************************************************************************
*  Output for configuration   1                                                *
********************************************************************************


  Components of energy : 

--------------------------------------------------------------------------------
  Interatomic potentials     =           3.31142283 eV
  Monopole - monopole (real) =         -10.95968465 eV
  Monopole - monopole (recip)=         -34.72088620 eV
  Monopole - monopole (total)=         -45.68057085 eV
--------------------------------------------------------------------------------
  Total lattice energy       =         -42.36914802 eV
--------------------------------------------------------------------------------
  Total lattice energy       =           -4087.9751 kJ/(mole unit cells)
--------------------------------------------------------------------------------


  Number of variables =       27

  Maximum number of calculations  =          1000
  Maximum Hessian update interval =            10
  Maximum step size               =   1.000000000
  Maximum parameter tolerance     =   0.000010000
  Maximum function  tolerance     =   0.000010000
  Maximum gradient  tolerance     =   0.001000000
  Maximum gradient  component     =   0.010000000

  Symmetry not applied to optimisation

  Cell parameters to be optimised using strains

  Newton-Raphson optimiser to be used

  BFGS hessian update to be used

  Start of bulk optimisation :

  Cycle:      0 Energy:       -42.369148  Gnorm:      0.327433  CPU:    0.003
  ** Hessian calculated **
  Cycle:      1 Energy:       -42.852726  Gnorm:      0.077624  CPU:    0.005
  Cycle:      2 Energy:       -42.868257  Gnorm:      0.020344  CPU:    0.006
  Cycle:      3 Energy:       -42.869709  Gnorm:      0.000005  CPU:    0.008


  **** Optimisation achieved ****


  Final energy =     -42.86970860 eV
  Final Gnorm  =       0.00000006

  Components of energy : 

--------------------------------------------------------------------------------
  Interatomic potentials     =           5.65787188 eV
  Monopole - monopole (real) =         -11.64273933 eV
  Monopole - monopole (recip)=         -36.88484115 eV
  Monopole - monopole (total)=         -48.52758049 eV
--------------------------------------------------------------------------------
  Total lattice energy       =         -42.86970860 eV
--------------------------------------------------------------------------------
  Total lattice energy       =           -4136.2716 kJ/(mole unit cells)
--------------------------------------------------------------------------------

  Final fractional coordinates of atoms :

--------------------------------------------------------------------------------
   No.  Atomic        x           y          z          Radius
        Label       (Frac)      (Frac)     (Frac)       (Angs) 
--------------------------------------------------------------------------------
     1  K     c     0.000000    0.000000    0.000000    0.000000
     2  Zn    c     0.500000    0.500000    0.500000    0.000000
     3  F     c     0.500000    0.500000    1.000000    0.000000
     4  F     c     1.000000    0.500000    0.500000    0.000000
     5  F     c     0.500000    1.000000    0.500000    0.000000
     6  F     s     0.500000    0.500000    1.000000    0.000000
     7  F     s     1.000000    0.500000    0.500000    0.000000
     8  F     s     0.500000    1.000000    0.500000    0.000000
--------------------------------------------------------------------------------

  Final Cartesian lattice vectors (Angstroms) :

        3.953595    0.000000    0.000000
        0.000000    3.953595    0.000000
        0.000000    0.000000    3.953595


  Final cell parameters and derivatives :

--------------------------------------------------------------------------------
       a            3.953595 Angstrom     dE/de1(xx)    -0.000001 eV/strain
       b            3.953595 Angstrom     dE/de2(yy)    -0.000001 eV/strain
       c            3.953595 Angstrom     dE/de3(zz)    -0.000001 eV/strain
       alpha       90.000000 Degrees      dE/de4(yz)     0.000000 eV/strain
       beta        90.000000 Degrees      dE/de5(xz)     0.000000 eV/strain
       gamma       90.000000 Degrees      dE/de6(xy)     0.000000 eV/strain
--------------------------------------------------------------------------------

  Primitive cell volume =            61.798299 Angs**3

  Density of cell =      4.339354 g/cm**3

  Non-primitive cell volume =            61.798299 Angs**3


  Final internal derivatives :

--------------------------------------------------------------------------------
   No.  Atomic          a             b             c           Radius
        Label          (eV)          (eV)          (eV)        (eV/Angs)
--------------------------------------------------------------------------------
      1 K     c       0.000000      0.000000      0.000000      0.000000
      2 Zn    c       0.000000      0.000000      0.000000      0.000000
      3 F     c       0.000000      0.000000      0.000000      0.000000
      4 F     c       0.000000      0.000000      0.000000      0.000000
      5 F     c       0.000000      0.000000      0.000000      0.000000
      6 F     s       0.000000      0.000000      0.000000      0.000000
      7 F     s       0.000000      0.000000      0.000000      0.000000
      8 F     s       0.000000      0.000000      0.000000      0.000000
--------------------------------------------------------------------------------
  Maximum abs         0.000000      0.000000      0.000000      0.000000
--------------------------------------------------------------------------------


  Born effective charge tensors : 

-------------------------------------------------------------------------------
  Atom             x           y             z
-------------------------------------------------------------------------------
   1 K     x       1.3487      0.0000      0.0000
           y       0.0000      1.3487      0.0000
           z       0.0000      0.0000      1.3487
-------------------------------------------------------------------------------
   2 Zn    x       1.3760      0.0000      0.0000
           y       0.0000      1.3760      0.0000
           z       0.0000      0.0000      1.3760
-------------------------------------------------------------------------------
   3 F     x      -0.9420      0.0000      0.0000
           y       0.0000     -0.9420      0.0000
           z       0.0000      0.0000     -0.8408
-------------------------------------------------------------------------------
   4 F     x      -0.8408      0.0000      0.0000
           y       0.0000     -0.9420      0.0000
           z       0.0000      0.0000     -0.9420
-------------------------------------------------------------------------------
   5 F     x      -0.9420      0.0000      0.0000
           y       0.0000     -0.8408      0.0000
           z       0.0000      0.0000     -0.9420
-------------------------------------------------------------------------------




  Elastic Constant Matrix: (Units=GPa)

-------------------------------------------------------------------------------
  Indices      1         2         3         4         5         6    
-------------------------------------------------------------------------------
       1    180.3069   46.5648   46.5648    0.0000    0.0000    0.0000
       2     46.5648  180.3069   46.5648    0.0000    0.0000    0.0000
       3     46.5648   46.5648  180.3069    0.0000    0.0000    0.0000
       4      0.0000    0.0000    0.0000   46.5648    0.0000    0.0000
       5      0.0000    0.0000    0.0000    0.0000   46.5648    0.0000
       6      0.0000    0.0000    0.0000    0.0000    0.0000   46.5648
-------------------------------------------------------------------------------


  Elastic Compliance Matrix: (Units=1/GPa)

-------------------------------------------------------------------------------
  Indices      1         2         3         4         5         6    
-------------------------------------------------------------------------------
       1    0.006204 -0.001273 -0.001273  0.000000  0.000000  0.000000
       2   -0.001273  0.006204 -0.001273  0.000000  0.000000  0.000000
       3   -0.001273 -0.001273  0.006204  0.000000  0.000000  0.000000
       4    0.000000  0.000000  0.000000  0.021475  0.000000  0.000000
       5    0.000000  0.000000  0.000000  0.000000  0.021475  0.000000
       6    0.000000  0.000000  0.000000  0.000000  0.000000  0.021475
-------------------------------------------------------------------------------

  Mechanical properties :

-------------------------------------------------------------------------------
  Convention :                    Reuss         Voigt         Hill
-------------------------------------------------------------------------------
  Bulk  Modulus (GPa)     =      91.14547      91.14547      91.14547
  Shear Modulus (GPa)     =      53.00277      54.68728      53.84503
-------------------------------------------------------------------------------
  Velocity S-wave (km/s)  =       3.49492       3.55002       3.52257
  Velocity P-wave (km/s)  =       6.10658       6.14881       6.12773
-------------------------------------------------------------------------------
  Compressibility (1/GPa) =    0.01097147
-------------------------------------------------------------------------------
  Stress axis :                     x             y             z
-------------------------------------------------------------------------------
  Youngs Moduli (GPa)     =     161.19230     161.19230     161.19230
-------------------------------------------------------------------------------
  Poissons Ratio (x)      =                     0.20525       0.20525
  Poissons Ratio (y)      =       0.20525                     0.20525
  Poissons Ratio (z)      =       0.20525       0.20525
-------------------------------------------------------------------------------


  Piezoelectric Strain Matrix: (Units=C/m**2)

-------------------------------------------------------------------------------
  Indices      1         2         3         4         5         6    
-------------------------------------------------------------------------------
       x     0.00000   0.00000   0.00000   0.00000   0.00000   0.00000
       y     0.00000   0.00000   0.00000   0.00000   0.00000   0.00000
       z     0.00000   0.00000   0.00000   0.00000   0.00000   0.00000
-------------------------------------------------------------------------------


  Piezoelectric Stress Matrix: (Units=10**-11 C/N)

-------------------------------------------------------------------------------
  Indices      1         2         3         4         5         6    
-------------------------------------------------------------------------------
       x     0.00000   0.00000   0.00000   0.00000   0.00000   0.00000
       y     0.00000   0.00000   0.00000   0.00000   0.00000   0.00000
       z     0.00000   0.00000   0.00000   0.00000   0.00000   0.00000
-------------------------------------------------------------------------------


  Static dielectric constant tensor : 

-------------------------------------------------------------------------------
              x         y         z
-------------------------------------------------------------------------------
       x     6.04423   0.00000   0.00000
       y     0.00000   6.04423   0.00000
       z     0.00000   0.00000   6.04423
--------------------------------------------------------------------------------

  High frequency dielectric constant tensor : 

-------------------------------------------------------------------------------
              x         y         z
-------------------------------------------------------------------------------
       x     1.64871   0.00000   0.00000
       y     0.00000   1.64871   0.00000
       z     0.00000   0.00000   1.64871
-------------------------------------------------------------------------------

  Static refractive indices : 

-------------------------------------------------------------------------------
    1 =    2.45850      2 =    2.45850      3 =    2.45850
-------------------------------------------------------------------------------

  High frequency refractive indices : 

-------------------------------------------------------------------------------
    1 =    1.28402      2 =    1.28402      3 =    1.28402
-------------------------------------------------------------------------------


  Time to end of optimisation =       0.0121 seconds


  Peak dynamic memory used =       0.50 MB 


  Timing analysis for GULP :

--------------------------------------------------------------------------------
  Task / Subroutine                                          Time (Seconds)
--------------------------------------------------------------------------------
  Calculation of reciprocal space energy and derivatives          0.0011
  Calculation of real space energy and derivatives                0.0079
--------------------------------------------------------------------------------
  Total CPU time                                                  0.0121
--------------------------------------------------------------------------------


  CIF file written as perov.cif                                               


  Job Finished at 14:00.00 22nd February   2017                               

