********************************************************************************
*                       GENERAL UTILITY LATTICE PROGRAM                        *
*                                 Julian Gale                                  *
*                      Nanochemistry Research Institute                        *
*                           Department of Chemistry                            *
*                    Curtin University, Western Australia                      *
********************************************************************************
* Version = 4.3.2 * Last modified =  3rd March 2015                            *
********************************************************************************
*  optimise     - perform optimisation run                                     *
*  conp         - constant pressure calculation                                *
*  property     - calculate properties for final geometry                      *
********************************************************************************

  Job Started  at 13:59.59 22nd February   2017                               

  Number of CPUs =     1


  Total number of configurations input =   1

********************************************************************************
*  Input for Configuration =   1                                               *
********************************************************************************

  Formula = KZnF3                                                       

  Number of irreducible atoms/shells =       8


  Total number atoms/shells =       8

  Dimensionality = 3               :  Bulk   



  Cartesian lattice vectors (Angstroms) :

        4.200000    0.000000    0.000000
        0.000000    4.200000    0.000000
        0.000000    0.000000    4.200000

  Cell parameters (Angstroms/Degrees):

  a =       4.2000    alpha =  90.0000
  b =       4.2000    beta  =  90.0000
  c =       4.2000    gamma =  90.0000

  Initial cell volume =          74.088000 Angs**3

  Temperature of configuration =  0.000     K 

  Pressure of configuration =         0.000 GPa 

  Fractional coordinates of asymmetric unit :

--------------------------------------------------------------------------------
   No.  Atomic       x           y          z         Charge      Occupancy
        Label      (Frac)      (Frac)     (Frac)        (e)         (Frac)  
--------------------------------------------------------------------------------
      1 K     c    0.000000    0.000000    0.000000     1.10000    1.000000    
      2 Zn    c    0.500000 *  0.500000 *  0.500000 *   1.80000    1.000000    
      3 F     c    0.500000 *  0.500000 *  0.000000 *   0.37800    1.000000    
      4 F     c    0.000000 *  0.500000 *  0.500000 *   0.37800    1.000000    
      5 F     c    0.500000 *  0.000000 *  0.500000 *   0.37800    1.000000    
      6 F     s    0.500000 *  0.500000 *  0.000000 *  -1.34467    1.000000    
      7 F     s    0.000000 *  0.500000 *  0.500000 *  -1.34467    1.000000    
      8 F     s    0.500000 *  0.000000 *  0.500000 *  -1.34467    1.000000    
--------------------------------------------------------------------------------



********************************************************************************
*  General input information                                                   *
********************************************************************************

  Species output for all configurations : 

--------------------------------------------------------------------------------
  Species    Type    Atomic    Atomic    Charge       Radii (Angs)     Library
                     Number     Mass       (e)     Cova   Ionic  VDW   Symbol
--------------------------------------------------------------------------------
    K        Core       19      39.10   1.100000   1.330  0.000  2.800          
    Zn       Core       30      65.39   1.800000   1.450  0.000  2.160          
    F        Core        9      19.00   0.378000   0.710  0.000  1.300          
    F        Shell       9       0.00  -1.344667   0.710  0.000  1.300          
--------------------------------------------------------------------------------


  Lattice summation method               =    Ewald          (3-D)
                                         =    Parry          (2-D)
                                         =    Saunders et al (1-D)
  Accuracy factor for lattice sums       =   12.000


  Time limit = Infinity

  Maximum range for interatomic potentials =    100000.000000 Angstroms

  General interatomic potentials :

--------------------------------------------------------------------------------
Atom  Types   Potential         A         B         C         D     Cutoffs(Ang)
  1     2                                                            Min    Max 
--------------------------------------------------------------------------------
K    c K    c Buckingham    0.219E+04 0.192      0.00      0.00     0.000 10.000
Zn   c F    s Buckingham    0.148E+04 0.266      0.00      0.00     0.000 10.000
F    s F    s Buckingham     912.     0.271      40.0      0.00     0.000 10.000
K    c F    s Buckingham    0.352E+04 0.267      0.00      0.00     0.000 10.000
F    c F    s Spring (c-s)   23.2      0.00      0.00      0.00     0.000  0.800
--------------------------------------------------------------------------------

********************************************************************************
*  Output for configuration   1                                                *
********************************************************************************


  Components of energy : 

--------------------------------------------------------------------------------
  Interatomic potentials     =           3.31142283 eV
  Monopole - monopole (real) =          -9.28567621 eV
  Monopole - monopole (recip)=         -28.94827815 eV
  Monopole - monopole (total)=         -38.23395436 eV
--------------------------------------------------------------------------------
  Total lattice energy       =         -34.92253153 eV
--------------------------------------------------------------------------------
  Total lattice energy       =           -3369.4905 kJ/(mole unit cells)
--------------------------------------------------------------------------------


  Number of variables =       27

  Maximum number of calculations  =          1000
  Maximum Hessian update interval =            10
  Maximum step size               =   1.000000000
  Maximum parameter tolerance     =   0.000010000
  Maximum function  tolerance     =   0.000010000
  Maximum gradient  tolerance     =   0.001000000
  Maximum gradient  component     =   0.010000000

  Symmetry not applied to optimisation

  Cell parameters to be optimised using strains

  Newton-Raphson optimiser to be used

  BFGS hessian update to be used

  Start of bulk optimisation :

  Cycle:      0 Energy:       -34.922532  Gnorm:      0.168199  CPU:    0.003
  ** Hessian calculated **
  Cycle:      1 Energy:       -35.060366  Gnorm:      0.018498  CPU:    0.004
  Cycle:      2 Energy:       -35.061717  Gnorm:      0.002812  CPU:    0.006
  Cycle:      3 Energy:       -35.061750  Gnorm:      0.000002  CPU:    0.007


  **** Optimisation achieved ****


  Final energy =     -35.06174998 eV
  Final Gnorm  =       0.00000001

  Components of energy : 

--------------------------------------------------------------------------------
  Interatomic potentials     =           4.47839674 eV
  Monopole - monopole (real) =          -9.60290417 eV
  Monopole - monopole (recip)=         -29.93724255 eV
  Monopole - monopole (total)=         -39.54014672 eV
--------------------------------------------------------------------------------
  Total lattice energy       =         -35.06174998 eV
--------------------------------------------------------------------------------
  Total lattice energy       =           -3382.9229 kJ/(mole unit cells)
--------------------------------------------------------------------------------

  Final fractional coordinates of atoms :

--------------------------------------------------------------------------------
   No.  Atomic        x           y          z          Radius
        Label       (Frac)      (Frac)     (Frac)       (Angs) 
--------------------------------------------------------------------------------
     1  K     c     0.000000    0.000000    0.000000    0.000000
     2  Zn    c     0.500000    0.500000    0.500000    0.000000
     3  F     c     0.500000    0.500000    0.000000    0.000000
     4  F     c     1.000000    0.500000    0.500000    0.000000
     5  F     c     0.500000    0.000000    0.500000    0.000000
     6  F     s     0.500000    0.500000    0.000000    0.000000
     7  F     s     1.000000    0.500000    0.500000    0.000000
     8  F     s     0.500000    0.000000    0.500000    0.000000
--------------------------------------------------------------------------------

  Final Cartesian lattice vectors (Angstroms) :

        4.061255    0.000000    0.000000
        0.000000    4.061255    0.000000
        0.000000    0.000000    4.061255


  Final cell parameters and derivatives :

--------------------------------------------------------------------------------
       a            4.061255 Angstrom     dE/de1(xx)     0.000000 eV/strain
       b            4.061255 Angstrom     dE/de2(yy)     0.000000 eV/strain
       c            4.061255 Angstrom     dE/de3(zz)     0.000000 eV/strain
       alpha       90.000000 Degrees      dE/de4(yz)     0.000000 eV/strain
       beta        90.000000 Degrees      dE/de5(xz)     0.000000 eV/strain
       gamma       90.000000 Degrees      dE/de6(xy)     0.000000 eV/strain
--------------------------------------------------------------------------------

  Primitive cell volume =            66.985483 Angs**3

  Density of cell =      4.003326 g/cm**3

  Non-primitive cell volume =            66.985483 Angs**3


  Final internal derivatives :

--------------------------------------------------------------------------------
   No.  Atomic          a             b             c           Radius
        Label          (eV)          (eV)          (eV)        (eV/Angs)
--------------------------------------------------------------------------------
      1 K     c       0.000000      0.000000      0.000000      0.000000
      2 Zn    c       0.000000      0.000000      0.000000      0.000000
      3 F     c       0.000000      0.000000      0.000000      0.000000
      4 F     c       0.000000      0.000000      0.000000      0.000000
      5 F     c       0.000000      0.000000      0.000000      0.000000
      6 F     s       0.000000      0.000000      0.000000      0.000000
      7 F     s       0.000000      0.000000      0.000000      0.000000
      8 F     s       0.000000      0.000000      0.000000      0.000000
--------------------------------------------------------------------------------
  Maximum abs         0.000000      0.000000      0.000000      0.000000
--------------------------------------------------------------------------------


  Born effective charge tensors : 

-------------------------------------------------------------------------------
  Atom             x           y             z
-------------------------------------------------------------------------------
   1 K     x       1.1298      0.0000      0.0000
           y       0.0000      1.1298      0.0000
           z       0.0000      0.0000      1.1298
-------------------------------------------------------------------------------
   2 Zn    x       1.3305      0.0000      0.0000
           y       0.0000      1.3305      0.0000
           z       0.0000      0.0000      1.3305
-------------------------------------------------------------------------------
   3 F     x      -0.8466      0.0000      0.0000
           y       0.0000     -0.8466      0.0000
           z       0.0000      0.0000     -0.7670
-------------------------------------------------------------------------------
   4 F     x      -0.7670      0.0000      0.0000
           y       0.0000     -0.8466      0.0000
           z       0.0000      0.0000     -0.8466
-------------------------------------------------------------------------------
   5 F     x      -0.8466      0.0000      0.0000
           y       0.0000     -0.7670      0.0000
           z       0.0000      0.0000     -0.8466
-------------------------------------------------------------------------------




  Elastic Constant Matrix: (Units=GPa)

-------------------------------------------------------------------------------
  Indices      1         2         3         4         5         6    
-------------------------------------------------------------------------------
       1    142.3852   34.8603   34.8603    0.0000    0.0000    0.0000
       2     34.8603  142.3852   34.8603    0.0000    0.0000    0.0000
       3     34.8603   34.8603  142.3852    0.0000    0.0000    0.0000
       4      0.0000    0.0000    0.0000   34.8603    0.0000    0.0000
       5      0.0000    0.0000    0.0000    0.0000   34.8603    0.0000
       6      0.0000    0.0000    0.0000    0.0000    0.0000   34.8603
-------------------------------------------------------------------------------


  Elastic Compliance Matrix: (Units=1/GPa)

-------------------------------------------------------------------------------
  Indices      1         2         3         4         5         6    
-------------------------------------------------------------------------------
       1    0.007772 -0.001529 -0.001529  0.000000  0.000000  0.000000
       2   -0.001529  0.007772 -0.001529  0.000000  0.000000  0.000000
       3   -0.001529 -0.001529  0.007772  0.000000  0.000000  0.000000
       4    0.000000  0.000000  0.000000  0.028686  0.000000  0.000000
       5    0.000000  0.000000  0.000000  0.000000  0.028686  0.000000
       6    0.000000  0.000000  0.000000  0.000000  0.000000  0.028686
-------------------------------------------------------------------------------

  Mechanical properties :

-------------------------------------------------------------------------------
  Convention :                    Reuss         Voigt         Hill
-------------------------------------------------------------------------------
  Bulk  Modulus (GPa)     =      70.70194      70.70194      70.70194
  Shear Modulus (GPa)     =      40.56517      42.42116      41.49316
-------------------------------------------------------------------------------
  Velocity S-wave (km/s)  =       3.18322       3.25522       3.21942
  Velocity P-wave (km/s)  =       5.58313       5.63821       5.61074
-------------------------------------------------------------------------------
  Compressibility (1/GPa) =    0.01414388
-------------------------------------------------------------------------------
  Stress axis :                     x             y             z
-------------------------------------------------------------------------------
  Youngs Moduli (GPa)     =     128.67269     128.67269     128.67269
-------------------------------------------------------------------------------
  Poissons Ratio (x)      =                     0.19668       0.19668
  Poissons Ratio (y)      =       0.19668                     0.19668
  Poissons Ratio (z)      =       0.19668       0.19668
-------------------------------------------------------------------------------


  Piezoelectric Strain Matrix: (Units=C/m**2)

-------------------------------------------------------------------------------
  Indices      1         2         3         4         5         6    
-------------------------------------------------------------------------------
       x     0.00000   0.00000   0.00000   0.00000   0.00000   0.00000
       y     0.00000   0.00000   0.00000   0.00000   0.00000   0.00000
       z     0.00000   0.00000   0.00000   0.00000   0.00000   0.00000
-------------------------------------------------------------------------------


  Piezoelectric Stress Matrix: (Units=10**-11 C/N)

-------------------------------------------------------------------------------
  Indices      1         2         3         4         5         6    
-------------------------------------------------------------------------------
       x     0.00000   0.00000   0.00000   0.00000   0.00000   0.00000
       y     0.00000   0.00000   0.00000   0.00000   0.00000   0.00000
       z     0.00000   0.00000   0.00000   0.00000   0.00000   0.00000
-------------------------------------------------------------------------------


  Static dielectric constant tensor : 

-------------------------------------------------------------------------------
              x         y         z
-------------------------------------------------------------------------------
       x     5.17973   0.00000   0.00000
       y     0.00000   5.17973   0.00000
       z     0.00000   0.00000   5.17973
--------------------------------------------------------------------------------

  High frequency dielectric constant tensor : 

-------------------------------------------------------------------------------
              x         y         z
-------------------------------------------------------------------------------
       x     1.59868   0.00000   0.00000
       y     0.00000   1.59868   0.00000
       z     0.00000   0.00000   1.59868
-------------------------------------------------------------------------------

  Static refractive indices : 

-------------------------------------------------------------------------------
    1 =    2.27590      2 =    2.27590      3 =    2.27590
-------------------------------------------------------------------------------

  High frequency refractive indices : 

-------------------------------------------------------------------------------
    1 =    1.26439      2 =    1.26439      3 =    1.26439
-------------------------------------------------------------------------------


  Time to end of optimisation =       0.0111 seconds


  Peak dynamic memory used =       0.50 MB 


  Timing analysis for GULP :

--------------------------------------------------------------------------------
  Task / Subroutine                                          Time (Seconds)
--------------------------------------------------------------------------------
  Calculation of reciprocal space energy and derivatives          0.0010
  Calculation of real space energy and derivatives                0.0071
--------------------------------------------------------------------------------
  Total CPU time                                                  0.0111
--------------------------------------------------------------------------------


  CIF file written as perov.cif                                               


  Job Finished at 13:59.59 22nd February   2017                               

