********************************************************************************
*                       GENERAL UTILITY LATTICE PROGRAM                        *
*                                 Julian Gale                                  *
*                      Nanochemistry Research Institute                        *
*                           Department of Chemistry                            *
*                    Curtin University, Western Australia                      *
********************************************************************************
* Version = 4.3.2 * Last modified =  3rd March 2015                            *
********************************************************************************
*  optimise     - perform optimisation run                                     *
*  conp         - constant pressure calculation                                *
*  property     - calculate properties for final geometry                      *
********************************************************************************

  Job Started  at 14:51.54 22nd February   2017                               

  Number of CPUs =     1


  Total number of configurations input =   1

********************************************************************************
*  Input for Configuration =   1                                               *
********************************************************************************

  Formula = K2Mn2F6                                                     

  Number of irreducible atoms/shells =       6


  Total number atoms/shells =      16

  Dimensionality = 3               :  Bulk   


  Symmetry :

  Crystal family                   :  Tetragonal  
  Crystal class  (Groth - 1921)    :  Ditetragonal Dipyramidal             

  Space group (centrosymmetric)    :  I 4/M C M       

  Patterson group                  :  I 4/m m m

  Cartesian lattice vectors (Angstroms) :

       -2.100000    2.100000    2.100000
        2.100000   -2.100000    2.100000
        2.100000    2.100000   -2.100000

  Primitive cell parameters :            Full cell parameters :

  a =   3.6373    alpha = 109.4712       a =   4.2000    alpha =  90.0000
  b =   3.6373    beta  = 109.4712       b =   4.2000    beta  =  90.0000
  c =   3.6373    gamma = 109.4712       c =   4.2000    gamma =  90.0000

  Initial volumes (Angstroms**3):

  Primitive cell =          37.044000    Full cell =          74.088000

  Temperature of configuration =  0.000     K 

  Pressure of configuration =         0.000 GPa 

  Fractional coordinates of asymmetric unit :

--------------------------------------------------------------------------------
   No.  Atomic       x           y          z         Charge      Occupancy
        Label      (Frac)      (Frac)     (Frac)        (e)         (Frac)  
--------------------------------------------------------------------------------
      1 K     c    0.000000    0.500000    0.250000     0.80000    1.000000    
      2 Mn    c    0.000000    0.000000    0.000000     1.80000    1.000000    
      3 F     c    0.240600 *  0.740600    0.000000     0.37800    1.000000    
      4 F     c    0.000000    0.000000    0.250000     0.37800    1.000000    
      5 F     s    0.240600 *  0.740600    0.000000    -1.24467    1.000000    
      6 F     s    0.000000    0.000000    0.250000    -1.24467    1.000000    
--------------------------------------------------------------------------------


  Constraints : 

--------------------------------------------------------------------------------
  Constraint no.      Unconstrained     Constrained    Coefficient    Offset
                         Variable         Variable
--------------------------------------------------------------------------------
           1              Strain 1        Strain 2       1.00000      0.0000
           2                 3 x             3 y         1.00000      0.5000
           3                 5 x             5 y         1.00000      0.5000
--------------------------------------------------------------------------------


********************************************************************************
*  General input information                                                   *
********************************************************************************

  Species output for all configurations : 

--------------------------------------------------------------------------------
  Species    Type    Atomic    Atomic    Charge       Radii (Angs)     Library
                     Number     Mass       (e)     Cova   Ionic  VDW   Symbol
--------------------------------------------------------------------------------
    K        Core       19      39.10   0.800000   1.330  0.000  2.800          
    Mn       Core       25      54.94   1.800000   1.350  0.000  2.010          
    F        Core        9      19.00   0.378000   0.710  0.000  1.300          
    F        Shell       9       0.00  -1.244667   0.710  0.000  1.300          
--------------------------------------------------------------------------------


  Lattice summation method               =    Ewald          (3-D)
                                         =    Parry          (2-D)
                                         =    Saunders et al (1-D)
  Accuracy factor for lattice sums       =   12.000


  Time limit = Infinity

  Maximum range for interatomic potentials =    100000.000000 Angstroms

  General interatomic potentials :

--------------------------------------------------------------------------------
Atom  Types   Potential         A         B         C         D     Cutoffs(Ang)
  1     2                                                            Min    Max 
--------------------------------------------------------------------------------
K    c K    c Buckingham    0.219E+04 0.192      0.00      0.00     0.000 10.000
Mn   c F    s Buckingham    0.148E+04 0.266      0.00      0.00     0.000 10.000
F    s F    s Buckingham     912.     0.271      60.0      0.00     0.000 10.000
K    c F    s Buckingham    0.352E+04 0.267      0.00      0.00     0.000 10.000
F    c F    s Spring (c-s)   19.9      0.00      0.00      0.00     0.000  0.800
--------------------------------------------------------------------------------

********************************************************************************
*  Output for configuration   1                                                *
********************************************************************************


  Components of energy : 

--------------------------------------------------------------------------------
  Interatomic potentials     =         218.21103228 eV
  Monopole - monopole (real) =         -40.24098287 eV
  Monopole - monopole (recip)=         -66.34804561 eV
  Monopole - monopole (total)=        -106.58902849 eV
--------------------------------------------------------------------------------
  Total lattice energy : 
    Primitive unit cell      =         111.62200379 eV
    Non-primitive unit cell  =         223.24400758 eV
--------------------------------------------------------------------------------
  Total lattice energy (in kJmol-1): 
    Primitive unit cell      =           10769.8171 kJ/(mole unit cells)
    Non-primitive unit cell  =           21539.6341 kJ/(mole unit cells)
--------------------------------------------------------------------------------


  Number of variables =        4

  Maximum number of calculations  =          1000
  Maximum Hessian update interval =            10
  Maximum step size               =   1.000000000
  Maximum parameter tolerance     =   0.000010000
  Maximum function  tolerance     =   0.000010000
  Maximum gradient  tolerance     =   0.001000000
  Maximum gradient  component     =   0.010000000

  Symmetry constrained optimisation

  Symmetry used for second derivatives

  Cell parameters to be optimised using strains

  Newton-Raphson optimiser to be used

  BFGS hessian update to be used

  Start of bulk optimisation :

  Cycle:      0 Energy:       111.622004  Gnorm:    190.105783  CPU:    0.010
  ** Hessian calculated **
  Cycle:      1 Energy:       -58.860122  Gnorm:      5.235943  CPU:    0.031
  ** Hessian calculated **
  Cycle:      2 Energy:       -59.529507  Gnorm:      0.545338  CPU:    0.044
  Cycle:      3 Energy:       -59.544456  Gnorm:      0.334199  CPU:    0.052
  Cycle:      4 Energy:       -59.547467  Gnorm:      0.398800  CPU:    0.059
  Cycle:      5 Energy:       -59.547759  Gnorm:      0.053628  CPU:    0.067


  **** Optimisation achieved ****


  Final energy =     -59.54776397 eV
  Final Gnorm  =       0.00074339

  Components of energy : 

--------------------------------------------------------------------------------
  Interatomic potentials     =           7.13727798 eV
  Monopole - monopole (real) =         -23.82631582 eV
  Monopole - monopole (recip)=         -42.85872613 eV
  Monopole - monopole (total)=         -66.68504195 eV
--------------------------------------------------------------------------------
  Total lattice energy : 
    Primitive unit cell      =         -59.54776397 eV
    Non-primitive unit cell  =        -119.09552794 eV
--------------------------------------------------------------------------------
  Total lattice energy (in kJmol-1): 
    Primitive unit cell      =           -5745.4490 kJ/(mole unit cells)
    Non-primitive unit cell  =          -11490.8979 kJ/(mole unit cells)
--------------------------------------------------------------------------------

  Final asymmetric unit coordinates :

--------------------------------------------------------------------------------
   No.  Atomic        x           y           z         Radius
        Label       (Frac)      (Frac)      (Frac)       (Angs) 
--------------------------------------------------------------------------------
     1  K     c     0.000000    0.500000    0.250000    0.000000
     2  Mn    c     0.000000    0.000000    0.000000    0.000000
     3  F     c     0.250005    0.750005    0.000000    0.000000
     4  F     c     0.000000    0.000000    0.250000    0.000000
     5  F     s     0.250005    0.750005    0.000000    0.000000
     6  F     s     0.000000    0.000000    0.250000    0.000000
--------------------------------------------------------------------------------

  Final Cartesian lattice vectors (Angstroms) :

       -2.903537    2.903537    4.106117
        2.903537   -2.903537    4.106117
        2.903537    2.903537   -4.106117


  Final cell parameters and derivatives :

--------------------------------------------------------------------------------
       a            5.807000 Angstrom     dE/de1(xx)     0.000953 eV/strain
       b            5.807000 Angstrom     dE/de2(yy)     0.000000 eV/strain
       c            5.807000 Angstrom     dE/de3(zz)    -0.001722 eV/strain
       alpha      119.999156 Degrees      dE/de4(yz)     0.000000 eV/strain
       beta       119.999156 Degrees      dE/de5(xz)     0.000000 eV/strain
       gamma       90.001462 Degrees      dE/de6(xy)     0.000000 eV/strain
--------------------------------------------------------------------------------

  Primitive cell volume =           138.466907 Angs**3

  Density of cell =      3.622697 g/cm**3

  Non-primitive lattice parameters :

  a    =     5.807074  b   =     5.807074  c    =     8.212233
  alpha=    90.000000  beta=    90.000000  gamma=    90.000000

  Non-primitive cell volume =           276.933814 Angs**3


  Final internal derivatives :

--------------------------------------------------------------------------------
   No.  Atomic          a             b             c           Radius
        Label          (eV)          (eV)          (eV)        (eV/Angs)
--------------------------------------------------------------------------------
      1 K     c       0.000000      0.000000      0.000000      0.000000
      2 Mn    c       0.000000      0.000000      0.000000      0.000000
      3 F     c      -0.000858      0.000000      0.000000      0.000000
      4 F     c       0.000000      0.000000      0.000000      0.000000
      5 F     s       0.002057      0.000000      0.000000      0.000000
      6 F     s       0.000000      0.000000      0.000000      0.000000
--------------------------------------------------------------------------------
  Maximum abs         0.002057      0.000000      0.000000      0.000000
--------------------------------------------------------------------------------


  Born effective charge tensors : 

-------------------------------------------------------------------------------
  Atom             x           y             z
-------------------------------------------------------------------------------
   1 K     x       0.7722      0.0000      0.0000
           y       0.0000      0.7722      0.0000
           z       0.0000      0.0000      0.7722
-------------------------------------------------------------------------------
   2 Mn    x       1.3327      0.0000      0.0000
           y       0.0000      1.3327      0.0000
           z       0.0000      0.0000      1.3326
-------------------------------------------------------------------------------
   3 F     x      -0.6924     -0.0276      0.0000
           y      -0.0276     -0.6924      0.0000
           z       0.0000      0.0000     -0.7201
-------------------------------------------------------------------------------
   4 F     x      -0.7201      0.0000      0.0000
           y       0.0000     -0.7201      0.0000
           z       0.0000      0.0000     -0.6647
-------------------------------------------------------------------------------




  Elastic Constant Matrix: (Units=GPa)

-------------------------------------------------------------------------------
  Indices      1         2         3         4         5         6    
-------------------------------------------------------------------------------
       1    103.0141   49.8593   26.5774    0.0000    0.0000    0.0000
       2     49.8593  103.0141   26.5774    0.0000    0.0000    0.0000
       3     26.5774   26.5774  126.3181    0.0000    0.0000    0.0000
       4      0.0000    0.0000    0.0000   26.5766    0.0000    0.0000
       5      0.0000    0.0000    0.0000    0.0000   26.5766    0.0000
       6      0.0000    0.0000    0.0000    0.0000    0.0000   49.8598
-------------------------------------------------------------------------------


  Elastic Compliance Matrix: (Units=1/GPa)

-------------------------------------------------------------------------------
  Indices      1         2         3         4         5         6    
-------------------------------------------------------------------------------
       1    0.012935 -0.005878 -0.001485  0.000000  0.000000  0.000000
       2   -0.005878  0.012935 -0.001485  0.000000  0.000000  0.000000
       3   -0.001485 -0.001485  0.008541  0.000000  0.000000  0.000000
       4    0.000000  0.000000  0.000000  0.037627  0.000000  0.000000
       5    0.000000  0.000000  0.000000  0.000000  0.037627  0.000000
       6    0.000000  0.000000  0.000000  0.000000  0.000000  0.020056
-------------------------------------------------------------------------------

  Mechanical properties :

-------------------------------------------------------------------------------
  Convention :                    Reuss         Voigt         Hill
-------------------------------------------------------------------------------
  Bulk  Modulus (GPa)     =      59.81937      59.81937      59.81937
  Shear Modulus (GPa)     =      32.68194      35.89144      34.28669
-------------------------------------------------------------------------------
  Velocity S-wave (km/s)  =       3.00357       3.14760       3.07643
  Velocity P-wave (km/s)  =       5.34238       5.45181       5.39737
-------------------------------------------------------------------------------
  Compressibility (1/GPa) =    0.01671699
-------------------------------------------------------------------------------
  Stress axis :                     x             y             z
-------------------------------------------------------------------------------
  Youngs Moduli (GPa)     =      77.30769      77.30769     117.07707
-------------------------------------------------------------------------------
  Poissons Ratio (x)      =                     0.45439       0.17385
  Poissons Ratio (y)      =       0.45439                     0.17385
  Poissons Ratio (z)      =       0.11480       0.11480
-------------------------------------------------------------------------------


  Piezoelectric Strain Matrix: (Units=C/m**2)

-------------------------------------------------------------------------------
  Indices      1         2         3         4         5         6    
-------------------------------------------------------------------------------
       x     0.00000   0.00000   0.00000   0.00000   0.00000   0.00000
       y     0.00000   0.00000   0.00000   0.00000   0.00000   0.00000
       z     0.00000   0.00000   0.00000   0.00000   0.00000   0.00000
-------------------------------------------------------------------------------


  Piezoelectric Stress Matrix: (Units=10**-11 C/N)

-------------------------------------------------------------------------------
  Indices      1         2         3         4         5         6    
-------------------------------------------------------------------------------
       x     0.00000   0.00000   0.00000   0.00000   0.00000   0.00000
       y     0.00000   0.00000   0.00000   0.00000   0.00000   0.00000
       z     0.00000   0.00000   0.00000   0.00000   0.00000   0.00000
-------------------------------------------------------------------------------


  Static dielectric constant tensor : 

-------------------------------------------------------------------------------
              x         y         z
-------------------------------------------------------------------------------
       x     3.57646   0.00000   0.00000
       y     0.00000   3.57646   0.00000
       z     0.00000   0.00000   3.57611
--------------------------------------------------------------------------------

  High frequency dielectric constant tensor : 

-------------------------------------------------------------------------------
              x         y         z
-------------------------------------------------------------------------------
       x     1.56566   0.00000   0.00000
       y     0.00000   1.56566   0.00000
       z     0.00000   0.00000   1.56564
-------------------------------------------------------------------------------

  Static refractive indices : 

-------------------------------------------------------------------------------
    1 =    1.89106      2 =    1.89115      3 =    1.89115
-------------------------------------------------------------------------------

  High frequency refractive indices : 

-------------------------------------------------------------------------------
    1 =    1.25126      2 =    1.25126      3 =    1.25126
-------------------------------------------------------------------------------


  Time to end of optimisation =       0.0825 seconds


  Peak dynamic memory used =       0.59 MB 


  Timing analysis for GULP :

--------------------------------------------------------------------------------
  Task / Subroutine                                          Time (Seconds)
--------------------------------------------------------------------------------
  Calculation of reciprocal space energy and derivatives          0.0011
  Calculation of reciprocal space energy using symmetry           0.0029
  Calculation of real space energy and derivatives                0.0066
  Calculation of real space energy using symmetry                 0.0680
  Symmetry generation of equivalent positions                     0.0004
--------------------------------------------------------------------------------
  Total CPU time                                                  0.0825
--------------------------------------------------------------------------------


  CIF file written as perov.cif                                               


  Job Finished at 14:51.54 22nd February   2017                               

