********************************************************************************
*                       GENERAL UTILITY LATTICE PROGRAM                        *
*                                 Julian Gale                                  *
*                      Nanochemistry Research Institute                        *
*                           Department of Chemistry                            *
*                    Curtin University, Western Australia                      *
********************************************************************************
* Version = 4.3.2 * Last modified =  3rd March 2015                            *
********************************************************************************
*  optimise     - perform optimisation run                                     *
*  conp         - constant pressure calculation                                *
*  property     - calculate properties for final geometry                      *
********************************************************************************

  Job Started  at 14:51.53 22nd February   2017                               

  Number of CPUs =     1


  Total number of configurations input =   1

********************************************************************************
*  Input for Configuration =   1                                               *
********************************************************************************

  Formula = K2Mn2F6                                                     

  Number of irreducible atoms/shells =       6


  Total number atoms/shells =      16

  Dimensionality = 3               :  Bulk   


  Symmetry :

  Crystal family                   :  Tetragonal  
  Crystal class  (Groth - 1921)    :  Ditetragonal Dipyramidal             

  Space group (centrosymmetric)    :  I 4/M C M       

  Patterson group                  :  I 4/m m m

  Cartesian lattice vectors (Angstroms) :

       -2.100000    2.100000    2.100000
        2.100000   -2.100000    2.100000
        2.100000    2.100000   -2.100000

  Primitive cell parameters :            Full cell parameters :

  a =   3.6373    alpha = 109.4712       a =   4.2000    alpha =  90.0000
  b =   3.6373    beta  = 109.4712       b =   4.2000    beta  =  90.0000
  c =   3.6373    gamma = 109.4712       c =   4.2000    gamma =  90.0000

  Initial volumes (Angstroms**3):

  Primitive cell =          37.044000    Full cell =          74.088000

  Temperature of configuration =  0.000     K 

  Pressure of configuration =         0.000 GPa 

  Fractional coordinates of asymmetric unit :

--------------------------------------------------------------------------------
   No.  Atomic       x           y          z         Charge      Occupancy
        Label      (Frac)      (Frac)     (Frac)        (e)         (Frac)  
--------------------------------------------------------------------------------
      1 K     c    0.000000    0.500000    0.250000     0.70000    1.000000    
      2 Mn    c    0.000000    0.000000    0.000000     2.00000    1.000000    
      3 F     c    0.240600 *  0.740600    0.000000     0.37800    1.000000    
      4 F     c    0.000000    0.000000    0.250000     0.37800    1.000000    
      5 F     s    0.240600 *  0.740600    0.000000    -1.27800    1.000000    
      6 F     s    0.000000    0.000000    0.250000    -1.27800    1.000000    
--------------------------------------------------------------------------------


  Constraints : 

--------------------------------------------------------------------------------
  Constraint no.      Unconstrained     Constrained    Coefficient    Offset
                         Variable         Variable
--------------------------------------------------------------------------------
           1              Strain 1        Strain 2       1.00000      0.0000
           2                 3 x             3 y         1.00000      0.5000
           3                 5 x             5 y         1.00000      0.5000
--------------------------------------------------------------------------------


********************************************************************************
*  General input information                                                   *
********************************************************************************

  Species output for all configurations : 

--------------------------------------------------------------------------------
  Species    Type    Atomic    Atomic    Charge       Radii (Angs)     Library
                     Number     Mass       (e)     Cova   Ionic  VDW   Symbol
--------------------------------------------------------------------------------
    K        Core       19      39.10   0.700000   1.330  0.000  2.800          
    Mn       Core       25      54.94   2.000000   1.350  0.000  2.010          
    F        Core        9      19.00   0.378000   0.710  0.000  1.300          
    F        Shell       9       0.00  -1.278000   0.710  0.000  1.300          
--------------------------------------------------------------------------------


  Lattice summation method               =    Ewald          (3-D)
                                         =    Parry          (2-D)
                                         =    Saunders et al (1-D)
  Accuracy factor for lattice sums       =   12.000


  Time limit = Infinity

  Maximum range for interatomic potentials =    100000.000000 Angstroms

  General interatomic potentials :

--------------------------------------------------------------------------------
Atom  Types   Potential         A         B         C         D     Cutoffs(Ang)
  1     2                                                            Min    Max 
--------------------------------------------------------------------------------
K    c K    c Buckingham    0.219E+04 0.192      0.00      0.00     0.000 10.000
Mn   c F    s Buckingham    0.148E+04 0.266      0.00      0.00     0.000 10.000
F    s F    s Buckingham     912.     0.271      60.0      0.00     0.000 10.000
K    c F    s Buckingham    0.352E+04 0.267      0.00      0.00     0.000 10.000
F    c F    s Spring (c-s)   20.9      0.00      0.00      0.00     0.000  0.800
--------------------------------------------------------------------------------

********************************************************************************
*  Output for configuration   1                                                *
********************************************************************************


  Components of energy : 

--------------------------------------------------------------------------------
  Interatomic potentials     =         218.21103228 eV
  Monopole - monopole (real) =         -45.63997311 eV
  Monopole - monopole (recip)=         -74.77200258 eV
  Monopole - monopole (total)=        -120.41197569 eV
--------------------------------------------------------------------------------
  Total lattice energy : 
    Primitive unit cell      =          97.79905659 eV
    Non-primitive unit cell  =         195.59811317 eV
--------------------------------------------------------------------------------
  Total lattice energy (in kJmol-1): 
    Primitive unit cell      =            9436.1140 kJ/(mole unit cells)
    Non-primitive unit cell  =           18872.2279 kJ/(mole unit cells)
--------------------------------------------------------------------------------


  Number of variables =        4

  Maximum number of calculations  =          1000
  Maximum Hessian update interval =            10
  Maximum step size               =   1.000000000
  Maximum parameter tolerance     =   0.000010000
  Maximum function  tolerance     =   0.000010000
  Maximum gradient  tolerance     =   0.001000000
  Maximum gradient  component     =   0.010000000

  Symmetry constrained optimisation

  Symmetry used for second derivatives

  Cell parameters to be optimised using strains

  Newton-Raphson optimiser to be used

  BFGS hessian update to be used

  Start of bulk optimisation :

  Cycle:      0 Energy:        97.799057  Gnorm:    187.878211  CPU:    0.010
  ** Hessian calculated **
  Cycle:      1 Energy:       -67.681441  Gnorm:      4.779845  CPU:    0.032
  ** Hessian calculated **
  Cycle:      2 Energy:       -68.221804  Gnorm:      1.313997  CPU:    0.045
  Cycle:      3 Energy:       -68.243224  Gnorm:      0.556232  CPU:    0.055
  Cycle:      4 Energy:       -68.245647  Gnorm:      0.349734  CPU:    0.063
  Cycle:      5 Energy:       -68.245918  Gnorm:      0.046216  CPU:    0.070
  Cycle:      6 Energy:       -68.245922  Gnorm:      0.001087  CPU:    0.078


  **** Optimisation achieved ****


  Final energy =     -68.24592164 eV
  Final Gnorm  =       0.00028405

  Components of energy : 

--------------------------------------------------------------------------------
  Interatomic potentials     =           8.39721892 eV
  Monopole - monopole (real) =         -13.66499233 eV
  Monopole - monopole (recip)=         -62.97814823 eV
  Monopole - monopole (total)=         -76.64314056 eV
--------------------------------------------------------------------------------
  Total lattice energy : 
    Primitive unit cell      =         -68.24592164 eV
    Non-primitive unit cell  =        -136.49184328 eV
--------------------------------------------------------------------------------
  Total lattice energy (in kJmol-1): 
    Primitive unit cell      =           -6584.6882 kJ/(mole unit cells)
    Non-primitive unit cell  =          -13169.3764 kJ/(mole unit cells)
--------------------------------------------------------------------------------

  Final asymmetric unit coordinates :

--------------------------------------------------------------------------------
   No.  Atomic        x           y           z         Radius
        Label       (Frac)      (Frac)      (Frac)       (Angs) 
--------------------------------------------------------------------------------
     1  K     c     0.000000    0.500000    0.250000    0.000000
     2  Mn    c     0.000000    0.000000    0.000000    0.000000
     3  F     c     0.250001    0.750001    0.000000    0.000000
     4  F     c     0.000000    0.000000    0.250000    0.000000
     5  F     s     0.250000    0.750000    0.000000    0.000000
     6  F     s     0.000000    0.000000    0.250000    0.000000
--------------------------------------------------------------------------------

  Final Cartesian lattice vectors (Angstroms) :

       -2.852666    2.852666    4.034281
        2.852666   -2.852666    4.034281
        2.852666    2.852666   -4.034281


  Final cell parameters and derivatives :

--------------------------------------------------------------------------------
       a            5.705334 Angstrom     dE/de1(xx)    -0.000019 eV/strain
       b            5.705334 Angstrom     dE/de2(yy)     0.000000 eV/strain
       c            5.705334 Angstrom     dE/de3(zz)     0.000049 eV/strain
       alpha      120.000021 Degrees      dE/de4(yz)     0.000000 eV/strain
       beta       120.000021 Degrees      dE/de5(xz)     0.000000 eV/strain
       gamma       89.999964 Degrees      dE/de6(xy)     0.000000 eV/strain
--------------------------------------------------------------------------------

  Primitive cell volume =           131.319142 Angs**3

  Density of cell =      3.819882 g/cm**3

  Non-primitive lattice parameters :

  a    =     5.705332  b   =     5.705332  c    =     8.068563
  alpha=    90.000000  beta=    90.000000  gamma=    90.000000

  Non-primitive cell volume =           262.638285 Angs**3


  Final internal derivatives :

--------------------------------------------------------------------------------
   No.  Atomic          a             b             c           Radius
        Label          (eV)          (eV)          (eV)        (eV/Angs)
--------------------------------------------------------------------------------
      1 K     c       0.000000      0.000000      0.000000      0.000000
      2 Mn    c       0.000000      0.000000      0.000000      0.000000
      3 F     c       0.000847      0.000000      0.000000      0.000000
      4 F     c       0.000000      0.000000      0.000000      0.000000
      5 F     s      -0.000755      0.000000      0.000000      0.000000
      6 F     s       0.000000      0.000000      0.000000      0.000000
--------------------------------------------------------------------------------
  Maximum abs         0.000847      0.000000      0.000000      0.000000
--------------------------------------------------------------------------------


  Born effective charge tensors : 

-------------------------------------------------------------------------------
  Atom             x           y             z
-------------------------------------------------------------------------------
   1 K     x       0.6307      0.0000      0.0000
           y       0.0000      0.6307      0.0000
           z       0.0000      0.0000      0.6307
-------------------------------------------------------------------------------
   2 Mn    x       1.5126      0.0000      0.0000
           y       0.0000      1.5126      0.0000
           z       0.0000      0.0000      1.5127
-------------------------------------------------------------------------------
   3 F     x      -0.7169      0.0075      0.0000
           y       0.0075     -0.7169      0.0000
           z       0.0000      0.0000     -0.7095
-------------------------------------------------------------------------------
   4 F     x      -0.7095      0.0000      0.0000
           y       0.0000     -0.7095      0.0000
           z       0.0000      0.0000     -0.7244
-------------------------------------------------------------------------------




  Elastic Constant Matrix: (Units=GPa)

-------------------------------------------------------------------------------
  Indices      1         2         3         4         5         6    
-------------------------------------------------------------------------------
       1    122.9431   56.3388   33.3022    0.0000    0.0000    0.0000
       2     56.3388  122.9431   33.3022    0.0000    0.0000    0.0000
       3     33.3022   33.3022  145.9792    0.0000    0.0000    0.0000
       4      0.0000    0.0000    0.0000   33.3022    0.0000    0.0000
       5      0.0000    0.0000    0.0000    0.0000   33.3022    0.0000
       6      0.0000    0.0000    0.0000    0.0000    0.0000   56.3388
-------------------------------------------------------------------------------


  Elastic Compliance Matrix: (Units=1/GPa)

-------------------------------------------------------------------------------
  Indices      1         2         3         4         5         6    
-------------------------------------------------------------------------------
       1    0.010554 -0.004460 -0.001390  0.000000  0.000000  0.000000
       2   -0.004460  0.010554 -0.001390  0.000000  0.000000  0.000000
       3   -0.001390 -0.001390  0.007485  0.000000  0.000000  0.000000
       4    0.000000  0.000000  0.000000  0.030028  0.000000  0.000000
       5    0.000000  0.000000  0.000000  0.000000  0.030028  0.000000
       6    0.000000  0.000000  0.000000  0.000000  0.000000  0.017750
-------------------------------------------------------------------------------

  Mechanical properties :

-------------------------------------------------------------------------------
  Convention :                    Reuss         Voigt         Hill
-------------------------------------------------------------------------------
  Bulk  Modulus (GPa)     =      70.86130      70.86130      70.86130
  Shear Modulus (GPa)     =      39.81406      42.51679      41.16542
-------------------------------------------------------------------------------
  Velocity S-wave (km/s)  =       3.22844       3.33622       3.28278
  Velocity P-wave (km/s)  =       5.69630       5.77851       5.73755
-------------------------------------------------------------------------------
  Compressibility (1/GPa) =    0.01411208
-------------------------------------------------------------------------------
  Stress axis :                     x             y             z
-------------------------------------------------------------------------------
  Youngs Moduli (GPa)     =      94.74926      94.74926     133.60720
-------------------------------------------------------------------------------
  Poissons Ratio (x)      =                     0.42257       0.18575
  Poissons Ratio (y)      =       0.42257                     0.18575
  Poissons Ratio (z)      =       0.13173       0.13173
-------------------------------------------------------------------------------


  Piezoelectric Strain Matrix: (Units=C/m**2)

-------------------------------------------------------------------------------
  Indices      1         2         3         4         5         6    
-------------------------------------------------------------------------------
       x     0.00000   0.00000   0.00000   0.00000   0.00000   0.00000
       y     0.00000   0.00000   0.00000   0.00000   0.00000   0.00000
       z     0.00000   0.00000   0.00000   0.00000   0.00000   0.00000
-------------------------------------------------------------------------------


  Piezoelectric Stress Matrix: (Units=10**-11 C/N)

-------------------------------------------------------------------------------
  Indices      1         2         3         4         5         6    
-------------------------------------------------------------------------------
       x     0.00000   0.00000   0.00000   0.00000   0.00000   0.00000
       y     0.00000   0.00000   0.00000   0.00000   0.00000   0.00000
       z     0.00000   0.00000   0.00000   0.00000   0.00000   0.00000
-------------------------------------------------------------------------------


  Static dielectric constant tensor : 

-------------------------------------------------------------------------------
              x         y         z
-------------------------------------------------------------------------------
       x     3.17217   0.00000   0.00000
       y     0.00000   3.17217   0.00000
       z     0.00000   0.00000   3.17219
--------------------------------------------------------------------------------

  High frequency dielectric constant tensor : 

-------------------------------------------------------------------------------
              x         y         z
-------------------------------------------------------------------------------
       x     1.58936   0.00000   0.00000
       y     0.00000   1.58936   0.00000
       z     0.00000   0.00000   1.58935
-------------------------------------------------------------------------------

  Static refractive indices : 

-------------------------------------------------------------------------------
    1 =    1.78106      2 =    1.78106      3 =    1.78106
-------------------------------------------------------------------------------

  High frequency refractive indices : 

-------------------------------------------------------------------------------
    1 =    1.26069      2 =    1.26070      3 =    1.26070
-------------------------------------------------------------------------------


  Time to end of optimisation =       0.0940 seconds


  Peak dynamic memory used =       0.59 MB 


  Timing analysis for GULP :

--------------------------------------------------------------------------------
  Task / Subroutine                                          Time (Seconds)
--------------------------------------------------------------------------------
  Calculation of reciprocal space energy and derivatives          0.0012
  Calculation of reciprocal space energy using symmetry           0.0032
  Calculation of real space energy and derivatives                0.0068
  Calculation of real space energy using symmetry                 0.0786
  Symmetry generation of equivalent positions                     0.0004
--------------------------------------------------------------------------------
  Total CPU time                                                  0.0941
--------------------------------------------------------------------------------


  CIF file written as perov.cif                                               


  Job Finished at 14:51.53 22nd February   2017                               

