********************************************************************************
*                       GENERAL UTILITY LATTICE PROGRAM                        *
*                                 Julian Gale                                  *
*                      Nanochemistry Research Institute                        *
*                           Department of Chemistry                            *
*                    Curtin University, Western Australia                      *
********************************************************************************
* Version = 4.3.2 * Last modified =  3rd March 2015                            *
********************************************************************************
*  optimise     - perform optimisation run                                     *
*  conp         - constant pressure calculation                                *
*  property     - calculate properties for final geometry                      *
********************************************************************************

  Job Started  at 14:51.52 22nd February   2017                               

  Number of CPUs =     1


  Total number of configurations input =   1

********************************************************************************
*  Input for Configuration =   1                                               *
********************************************************************************

  Formula = K2Mn2F6                                                     

  Number of irreducible atoms/shells =       6


  Total number atoms/shells =      16

  Dimensionality = 3               :  Bulk   


  Symmetry :

  Crystal family                   :  Tetragonal  
  Crystal class  (Groth - 1921)    :  Ditetragonal Dipyramidal             

  Space group (centrosymmetric)    :  I 4/M C M       

  Patterson group                  :  I 4/m m m

  Cartesian lattice vectors (Angstroms) :

       -2.100000    2.100000    2.100000
        2.100000   -2.100000    2.100000
        2.100000    2.100000   -2.100000

  Primitive cell parameters :            Full cell parameters :

  a =   3.6373    alpha = 109.4712       a =   4.2000    alpha =  90.0000
  b =   3.6373    beta  = 109.4712       b =   4.2000    beta  =  90.0000
  c =   3.6373    gamma = 109.4712       c =   4.2000    gamma =  90.0000

  Initial volumes (Angstroms**3):

  Primitive cell =          37.044000    Full cell =          74.088000

  Temperature of configuration =  0.000     K 

  Pressure of configuration =         0.000 GPa 

  Fractional coordinates of asymmetric unit :

--------------------------------------------------------------------------------
   No.  Atomic       x           y          z         Charge      Occupancy
        Label      (Frac)      (Frac)     (Frac)        (e)         (Frac)  
--------------------------------------------------------------------------------
      1 K     c    0.000000    0.500000    0.250000     0.70000    1.000000    
      2 Mn    c    0.000000    0.000000    0.000000     1.50000    1.000000    
      3 F     c    0.240600 *  0.740600    0.000000     0.37800    1.000000    
      4 F     c    0.000000    0.000000    0.250000     0.37800    1.000000    
      5 F     s    0.240600 *  0.740600    0.000000    -1.11133    1.000000    
      6 F     s    0.000000    0.000000    0.250000    -1.11133    1.000000    
--------------------------------------------------------------------------------


  Constraints : 

--------------------------------------------------------------------------------
  Constraint no.      Unconstrained     Constrained    Coefficient    Offset
                         Variable         Variable
--------------------------------------------------------------------------------
           1              Strain 1        Strain 2       1.00000      0.0000
           2                 3 x             3 y         1.00000      0.5000
           3                 5 x             5 y         1.00000      0.5000
--------------------------------------------------------------------------------


********************************************************************************
*  General input information                                                   *
********************************************************************************

  Species output for all configurations : 

--------------------------------------------------------------------------------
  Species    Type    Atomic    Atomic    Charge       Radii (Angs)     Library
                     Number     Mass       (e)     Cova   Ionic  VDW   Symbol
--------------------------------------------------------------------------------
    K        Core       19      39.10   0.700000   1.330  0.000  2.800          
    Mn       Core       25      54.94   1.500000   1.350  0.000  2.010          
    F        Core        9      19.00   0.378000   0.710  0.000  1.300          
    F        Shell       9       0.00  -1.111333   0.710  0.000  1.300          
--------------------------------------------------------------------------------


  Lattice summation method               =    Ewald          (3-D)
                                         =    Parry          (2-D)
                                         =    Saunders et al (1-D)
  Accuracy factor for lattice sums       =   12.000


  Time limit = Infinity

  Maximum range for interatomic potentials =    100000.000000 Angstroms

  General interatomic potentials :

--------------------------------------------------------------------------------
Atom  Types   Potential         A         B         C         D     Cutoffs(Ang)
  1     2                                                            Min    Max 
--------------------------------------------------------------------------------
K    c K    c Buckingham    0.219E+04 0.192      0.00      0.00     0.000 10.000
Mn   c F    s Buckingham    0.148E+04 0.266      0.00      0.00     0.000 10.000
F    s F    s Buckingham     912.     0.271      60.0      0.00     0.000 10.000
K    c F    s Buckingham    0.352E+04 0.267      0.00      0.00     0.000 10.000
F    c F    s Spring (c-s)   15.8      0.00      0.00      0.00     0.000  0.800
--------------------------------------------------------------------------------

********************************************************************************
*  Output for configuration   1                                                *
********************************************************************************


  Components of energy : 

--------------------------------------------------------------------------------
  Interatomic potentials     =         218.21103228 eV
  Monopole - monopole (real) =         -28.49214253 eV
  Monopole - monopole (recip)=         -47.09663065 eV
  Monopole - monopole (total)=         -75.58877318 eV
--------------------------------------------------------------------------------
  Total lattice energy : 
    Primitive unit cell      =         142.62225909 eV
    Non-primitive unit cell  =         285.24451819 eV
--------------------------------------------------------------------------------
  Total lattice energy (in kJmol-1): 
    Primitive unit cell      =           13760.8678 kJ/(mole unit cells)
    Non-primitive unit cell  =           27521.7356 kJ/(mole unit cells)
--------------------------------------------------------------------------------


  Number of variables =        4

  Maximum number of calculations  =          1000
  Maximum Hessian update interval =            10
  Maximum step size               =   1.000000000
  Maximum parameter tolerance     =   0.000010000
  Maximum function  tolerance     =   0.000010000
  Maximum gradient  tolerance     =   0.001000000
  Maximum gradient  component     =   0.010000000

  Symmetry constrained optimisation

  Symmetry used for second derivatives

  Cell parameters to be optimised using strains

  Newton-Raphson optimiser to be used

  BFGS hessian update to be used

  Start of bulk optimisation :

  Cycle:      0 Energy:       142.622259  Gnorm:    195.522008  CPU:    0.010
  ** Hessian calculated **
  Cycle:      1 Energy:       -39.405007  Gnorm:      6.383978  CPU:    0.031
  ** Hessian calculated **
  Cycle:      2 Energy:       -40.559720  Gnorm:      0.714170  CPU:    0.043
  Cycle:      3 Energy:       -40.586661  Gnorm:      0.339322  CPU:    0.052
  Cycle:      4 Energy:       -40.592884  Gnorm:      0.583680  CPU:    0.060
  Cycle:      5 Energy:       -40.594365  Gnorm:      0.257446  CPU:    0.067
  Cycle:      6 Energy:       -40.594470  Gnorm:      0.003922  CPU:    0.075


  **** Optimisation achieved ****


  Final energy =     -40.59447120 eV
  Final Gnorm  =       0.00065893

  Components of energy : 

--------------------------------------------------------------------------------
  Interatomic potentials     =           4.50121647 eV
  Monopole - monopole (real) =          -4.85587071 eV
  Monopole - monopole (recip)=         -40.23981696 eV
  Monopole - monopole (total)=         -45.09568767 eV
--------------------------------------------------------------------------------
  Total lattice energy : 
    Primitive unit cell      =         -40.59447120 eV
    Non-primitive unit cell  =         -81.18894241 eV
--------------------------------------------------------------------------------
  Total lattice energy (in kJmol-1): 
    Primitive unit cell      =           -3916.7459 kJ/(mole unit cells)
    Non-primitive unit cell  =           -7833.4919 kJ/(mole unit cells)
--------------------------------------------------------------------------------

  Final asymmetric unit coordinates :

--------------------------------------------------------------------------------
   No.  Atomic        x           y           z         Radius
        Label       (Frac)      (Frac)      (Frac)       (Angs) 
--------------------------------------------------------------------------------
     1  K     c     0.000000    0.500000    0.250000    0.000000
     2  Mn    c     0.000000    0.000000    0.000000    0.000000
     3  F     c     0.250016    0.750016    0.000000    0.000000
     4  F     c     0.000000    0.000000    0.250000    0.000000
     5  F     s     0.250015    0.750015    0.000000    0.000000
     6  F     s     0.000000    0.000000    0.250000    0.000000
--------------------------------------------------------------------------------

  Final Cartesian lattice vectors (Angstroms) :

       -3.045456    3.045456    4.306986
        3.045456   -3.045456    4.306986
        3.045456    3.045456   -4.306986


  Final cell parameters and derivatives :

--------------------------------------------------------------------------------
       a            6.090955 Angstrom     dE/de1(xx)    -0.001271 eV/strain
       b            6.090955 Angstrom     dE/de2(yy)     0.000000 eV/strain
       c            6.090955 Angstrom     dE/de3(zz)     0.000356 eV/strain
       alpha      120.000469 Degrees      dE/de4(yz)     0.000000 eV/strain
       beta       120.000469 Degrees      dE/de5(xz)     0.000000 eV/strain
       gamma       89.999187 Degrees      dE/de6(xy)     0.000000 eV/strain
--------------------------------------------------------------------------------

  Primitive cell volume =           159.785778 Angs**3

  Density of cell =      3.139351 g/cm**3

  Non-primitive lattice parameters :

  a    =     6.090912  b   =     6.090912  c    =     8.613972
  alpha=    90.000000  beta=    90.000000  gamma=    90.000000

  Non-primitive cell volume =           319.571555 Angs**3


  Final internal derivatives :

--------------------------------------------------------------------------------
   No.  Atomic          a             b             c           Radius
        Label          (eV)          (eV)          (eV)        (eV/Angs)
--------------------------------------------------------------------------------
      1 K     c       0.000000      0.000000      0.000000      0.000000
      2 Mn    c       0.000000      0.000000      0.000000      0.000000
      3 F     c       0.002182      0.000000      0.000000      0.000000
      4 F     c       0.000000      0.000000      0.000000      0.000000
      5 F     s      -0.000668      0.000000      0.000000      0.000000
      6 F     s       0.000000      0.000000      0.000000      0.000000
--------------------------------------------------------------------------------
  Maximum abs         0.002182      0.000000      0.000000      0.000000
--------------------------------------------------------------------------------


  Born effective charge tensors : 

-------------------------------------------------------------------------------
  Atom             x           y             z
-------------------------------------------------------------------------------
   1 K     x       0.6965      0.0000      0.0000
           y       0.0000      0.6965      0.0000
           z       0.0000      0.0000      0.6965
-------------------------------------------------------------------------------
   2 Mn    x       1.1107      0.0000      0.0000
           y       0.0000      1.1107      0.0000
           z       0.0000      0.0000      1.1108
-------------------------------------------------------------------------------
   3 F     x      -0.5870     -0.0463      0.0000
           y      -0.0463     -0.5870      0.0000
           z       0.0000      0.0000     -0.6333
-------------------------------------------------------------------------------
   4 F     x      -0.6333      0.0000      0.0000
           y       0.0000     -0.6333      0.0000
           z       0.0000      0.0000     -0.5407
-------------------------------------------------------------------------------




  Elastic Constant Matrix: (Units=GPa)

-------------------------------------------------------------------------------
  Indices      1         2         3         4         5         6    
-------------------------------------------------------------------------------
       1     63.0451   35.0385   14.0038    0.0000    0.0000    0.0000
       2     35.0385   63.0451   14.0038    0.0000    0.0000    0.0000
       3     14.0038   14.0038   84.0710    0.0000    0.0000    0.0000
       4      0.0000    0.0000    0.0000   14.0037    0.0000    0.0000
       5      0.0000    0.0000    0.0000    0.0000   14.0037    0.0000
       6      0.0000    0.0000    0.0000    0.0000    0.0000   35.0379
-------------------------------------------------------------------------------


  Elastic Compliance Matrix: (Units=1/GPa)

-------------------------------------------------------------------------------
  Indices      1         2         3         4         5         6    
-------------------------------------------------------------------------------
       1    0.023205 -0.012501 -0.001783  0.000000  0.000000  0.000000
       2   -0.012501  0.023205 -0.001783  0.000000  0.000000  0.000000
       3   -0.001783 -0.001783  0.012489  0.000000  0.000000  0.000000
       4    0.000000  0.000000  0.000000  0.071410  0.000000  0.000000
       5    0.000000  0.000000  0.000000  0.000000  0.071410  0.000000
       6    0.000000  0.000000  0.000000  0.000000  0.000000  0.028541
-------------------------------------------------------------------------------

  Mechanical properties :

-------------------------------------------------------------------------------
  Convention :                    Reuss         Voigt         Hill
-------------------------------------------------------------------------------
  Bulk  Modulus (GPa)     =      37.36148      37.36149      37.36148
  Shear Modulus (GPa)     =      18.42876      22.41671      20.42273
-------------------------------------------------------------------------------
  Velocity S-wave (km/s)  =       2.42286       2.67218       2.55057
  Velocity P-wave (km/s)  =       4.44162       4.62836       4.53596
-------------------------------------------------------------------------------
  Compressibility (1/GPa) =    0.02676553
-------------------------------------------------------------------------------
  Stress axis :                     x             y             z
-------------------------------------------------------------------------------
  Youngs Moduli (GPa)     =      43.09375      43.09375      80.07227
-------------------------------------------------------------------------------
  Poissons Ratio (x)      =                     0.53870       0.14277
  Poissons Ratio (y)      =       0.53870                     0.14277
  Poissons Ratio (z)      =       0.07684       0.07684
-------------------------------------------------------------------------------


  Piezoelectric Strain Matrix: (Units=C/m**2)

-------------------------------------------------------------------------------
  Indices      1         2         3         4         5         6    
-------------------------------------------------------------------------------
       x     0.00000   0.00000   0.00000   0.00000   0.00000   0.00000
       y     0.00000   0.00000   0.00000   0.00000   0.00000   0.00000
       z     0.00000   0.00000   0.00000   0.00000   0.00000   0.00000
-------------------------------------------------------------------------------


  Piezoelectric Stress Matrix: (Units=10**-11 C/N)

-------------------------------------------------------------------------------
  Indices      1         2         3         4         5         6    
-------------------------------------------------------------------------------
       x     0.00000   0.00000   0.00000   0.00000   0.00000   0.00000
       y     0.00000   0.00000   0.00000   0.00000   0.00000   0.00000
       z     0.00000   0.00000   0.00000   0.00000   0.00000   0.00000
-------------------------------------------------------------------------------


  Static dielectric constant tensor : 

-------------------------------------------------------------------------------
              x         y         z
-------------------------------------------------------------------------------
       x     3.88630   0.00000   0.00000
       y     0.00000   3.88630   0.00000
       z     0.00000   0.00000   3.88653
--------------------------------------------------------------------------------

  High frequency dielectric constant tensor : 

-------------------------------------------------------------------------------
              x         y         z
-------------------------------------------------------------------------------
       x     1.49726   0.00000   0.00000
       y     0.00000   1.49726   0.00000
       z     0.00000   0.00000   1.49727
-------------------------------------------------------------------------------

  Static refractive indices : 

-------------------------------------------------------------------------------
    1 =    1.97137      2 =    1.97137      3 =    1.97143
-------------------------------------------------------------------------------

  High frequency refractive indices : 

-------------------------------------------------------------------------------
    1 =    1.22363      2 =    1.22363      3 =    1.22363
-------------------------------------------------------------------------------


  Time to end of optimisation =       0.0907 seconds


  Peak dynamic memory used =       0.59 MB 


  Timing analysis for GULP :

--------------------------------------------------------------------------------
  Task / Subroutine                                          Time (Seconds)
--------------------------------------------------------------------------------
  Calculation of reciprocal space energy and derivatives          0.0012
  Calculation of reciprocal space energy using symmetry           0.0032
  Calculation of real space energy and derivatives                0.0067
  Calculation of real space energy using symmetry                 0.0757
  Symmetry generation of equivalent positions                     0.0004
--------------------------------------------------------------------------------
  Total CPU time                                                  0.0907
--------------------------------------------------------------------------------


  CIF file written as perov.cif                                               


  Job Finished at 14:51.53 22nd February   2017                               

