********************************************************************************
*                       GENERAL UTILITY LATTICE PROGRAM                        *
*                                 Julian Gale                                  *
*                      Nanochemistry Research Institute                        *
*                           Department of Chemistry                            *
*                    Curtin University, Western Australia                      *
********************************************************************************
* Version = 4.3.2 * Last modified =  3rd March 2015                            *
********************************************************************************
*  optimise     - perform optimisation run                                     *
*  conp         - constant pressure calculation                                *
*  property     - calculate properties for final geometry                      *
********************************************************************************

  Job Started  at 14:52.03 22nd February   2017                               

  Number of CPUs =     1


  Total number of configurations input =   1

********************************************************************************
*  Input for Configuration =   1                                               *
********************************************************************************

  Formula = K2Mn2F6                                                     

  Number of irreducible atoms/shells =       6


  Total number atoms/shells =      16

  Dimensionality = 3               :  Bulk   


  Symmetry :

  Crystal family                   :  Tetragonal  
  Crystal class  (Groth - 1921)    :  Ditetragonal Dipyramidal             

  Space group (centrosymmetric)    :  I 4/M C M       

  Patterson group                  :  I 4/m m m

  Cartesian lattice vectors (Angstroms) :

       -2.100000    2.100000    2.100000
        2.100000   -2.100000    2.100000
        2.100000    2.100000   -2.100000

  Primitive cell parameters :            Full cell parameters :

  a =   3.6373    alpha = 109.4712       a =   4.2000    alpha =  90.0000
  b =   3.6373    beta  = 109.4712       b =   4.2000    beta  =  90.0000
  c =   3.6373    gamma = 109.4712       c =   4.2000    gamma =  90.0000

  Initial volumes (Angstroms**3):

  Primitive cell =          37.044000    Full cell =          74.088000

  Temperature of configuration =  0.000     K 

  Pressure of configuration =         0.000 GPa 

  Fractional coordinates of asymmetric unit :

--------------------------------------------------------------------------------
   No.  Atomic       x           y          z         Charge      Occupancy
        Label      (Frac)      (Frac)     (Frac)        (e)         (Frac)  
--------------------------------------------------------------------------------
      1 K     c    0.000000    0.500000    0.250000     1.50000    1.000000    
      2 Mn    c    0.000000    0.000000    0.000000     2.00000    1.000000    
      3 F     c    0.240600 *  0.740600    0.000000     0.37800    1.000000    
      4 F     c    0.000000    0.000000    0.250000     0.37800    1.000000    
      5 F     s    0.240600 *  0.740600    0.000000    -1.54467    1.000000    
      6 F     s    0.000000    0.000000    0.250000    -1.54467    1.000000    
--------------------------------------------------------------------------------


  Constraints : 

--------------------------------------------------------------------------------
  Constraint no.      Unconstrained     Constrained    Coefficient    Offset
                         Variable         Variable
--------------------------------------------------------------------------------
           1              Strain 1        Strain 2       1.00000      0.0000
           2                 3 x             3 y         1.00000      0.5000
           3                 5 x             5 y         1.00000      0.5000
--------------------------------------------------------------------------------


********************************************************************************
*  General input information                                                   *
********************************************************************************

  Species output for all configurations : 

--------------------------------------------------------------------------------
  Species    Type    Atomic    Atomic    Charge       Radii (Angs)     Library
                     Number     Mass       (e)     Cova   Ionic  VDW   Symbol
--------------------------------------------------------------------------------
    K        Core       19      39.10   1.500000   1.330  0.000  2.800          
    Mn       Core       25      54.94   2.000000   1.350  0.000  2.010          
    F        Core        9      19.00   0.378000   0.710  0.000  1.300          
    F        Shell       9       0.00  -1.544667   0.710  0.000  1.300          
--------------------------------------------------------------------------------


  Lattice summation method               =    Ewald          (3-D)
                                         =    Parry          (2-D)
                                         =    Saunders et al (1-D)
  Accuracy factor for lattice sums       =   12.000


  Time limit = Infinity

  Maximum range for interatomic potentials =    100000.000000 Angstroms

  General interatomic potentials :

--------------------------------------------------------------------------------
Atom  Types   Potential         A         B         C         D     Cutoffs(Ang)
  1     2                                                            Min    Max 
--------------------------------------------------------------------------------
K    c K    c Buckingham    0.219E+04 0.192      0.00      0.00     0.000 10.000
Mn   c F    s Buckingham    0.148E+04 0.266      0.00      0.00     0.000 10.000
F    s F    s Buckingham     912.     0.271      60.0      0.00     0.000 10.000
K    c F    s Buckingham    0.352E+04 0.267      0.00      0.00     0.000 10.000
F    c F    s Spring (c-s)   30.6      0.00      0.00      0.00     0.000  0.800
--------------------------------------------------------------------------------

********************************************************************************
*  Output for configuration   1                                                *
********************************************************************************


  Components of energy : 

--------------------------------------------------------------------------------
  Interatomic potentials     =         218.21103228 eV
  Monopole - monopole (real) =         -63.78049520 eV
  Monopole - monopole (recip)=        -111.43745293 eV
  Monopole - monopole (total)=        -175.21794813 eV
--------------------------------------------------------------------------------
  Total lattice energy : 
    Primitive unit cell      =          42.99308414 eV
    Non-primitive unit cell  =          85.98616829 eV
--------------------------------------------------------------------------------
  Total lattice energy (in kJmol-1): 
    Primitive unit cell      =            4148.1754 kJ/(mole unit cells)
    Non-primitive unit cell  =            8296.3508 kJ/(mole unit cells)
--------------------------------------------------------------------------------


  Number of variables =        4

  Maximum number of calculations  =          1000
  Maximum Hessian update interval =            10
  Maximum step size               =   1.000000000
  Maximum parameter tolerance     =   0.000010000
  Maximum function  tolerance     =   0.000010000
  Maximum gradient  tolerance     =   0.001000000
  Maximum gradient  component     =   0.010000000

  Symmetry constrained optimisation

  Symmetry used for second derivatives

  Cell parameters to be optimised using strains

  Newton-Raphson optimiser to be used

  BFGS hessian update to be used

  Start of bulk optimisation :

  Cycle:      0 Energy:        42.993084  Gnorm:    177.359660  CPU:    0.011
  ** Hessian calculated **
  Cycle:      1 Energy:      -104.686140  Gnorm:      5.090237  CPU:    0.036
  ** Hessian calculated **
  Cycle:      2 Energy:      -104.884822  Gnorm:      2.613342  CPU:    0.050
  Cycle:      3 Energy:      -104.893825  Gnorm:      0.480893  CPU:    0.060
  Cycle:      4 Energy:      -104.894417  Gnorm:      0.069855  CPU:    0.068
  Cycle:      5 Energy:      -104.894619  Gnorm:      0.082327  CPU:    0.078
  Cycle:      6 Energy:      -104.894687  Gnorm:      0.056113  CPU:    0.088
  Cycle:      7 Energy:      -104.894693  Gnorm:      0.008678  CPU:    0.096


  **** Optimisation achieved ****


  Final energy =    -104.89469289 eV
  Final Gnorm  =       0.00096478

  Components of energy : 

--------------------------------------------------------------------------------
  Interatomic potentials     =          13.98088139 eV
  Monopole - monopole (real) =         -23.47131068 eV
  Monopole - monopole (recip)=         -95.40426361 eV
  Monopole - monopole (total)=        -118.87557429 eV
--------------------------------------------------------------------------------
  Total lattice energy : 
    Primitive unit cell      =        -104.89469289 eV
    Non-primitive unit cell  =        -209.78938579 eV
--------------------------------------------------------------------------------
  Total lattice energy (in kJmol-1): 
    Primitive unit cell      =          -10120.7344 kJ/(mole unit cells)
    Non-primitive unit cell  =          -20241.4688 kJ/(mole unit cells)
--------------------------------------------------------------------------------

  Final asymmetric unit coordinates :

--------------------------------------------------------------------------------
   No.  Atomic        x           y           z         Radius
        Label       (Frac)      (Frac)      (Frac)       (Angs) 
--------------------------------------------------------------------------------
     1  K     c     0.000000    0.500000    0.250000    0.000000
     2  Mn    c     0.000000    0.000000    0.000000    0.000000
     3  F     c     0.244842    0.744842    0.000000    0.000000
     4  F     c     0.000000    0.000000    0.250000    0.000000
     5  F     s     0.244873    0.744873    0.000000    0.000000
     6  F     s     0.000000    0.000000    0.250000    0.000000
--------------------------------------------------------------------------------

  Final Cartesian lattice vectors (Angstroms) :

       -2.691661    2.691661    3.807623
        2.691661   -2.691661    3.807623
        2.691661    2.691661   -3.807623


  Final cell parameters and derivatives :

--------------------------------------------------------------------------------
       a            5.384057 Angstrom     dE/de1(xx)    -0.002359 eV/strain
       b            5.384057 Angstrom     dE/de2(yy)     0.000000 eV/strain
       c            5.384057 Angstrom     dE/de3(zz)     0.000756 eV/strain
       alpha      120.009033 Degrees      dE/de4(yz)     0.000000 eV/strain
       beta       120.009033 Degrees      dE/de5(xz)     0.000000 eV/strain
       gamma       89.984355 Degrees      dE/de6(xy)     0.000000 eV/strain
--------------------------------------------------------------------------------

  Primitive cell volume =           110.345506 Angs**3

  Density of cell =      4.545936 g/cm**3

  Non-primitive lattice parameters :

  a    =     5.383322  b   =     5.383322  c    =     7.615246
  alpha=    90.000000  beta=    90.000000  gamma=    90.000000

  Non-primitive cell volume =           220.691012 Angs**3


  Final internal derivatives :

--------------------------------------------------------------------------------
   No.  Atomic          a             b             c           Radius
        Label          (eV)          (eV)          (eV)        (eV/Angs)
--------------------------------------------------------------------------------
      1 K     c       0.000000      0.000000      0.000000      0.000000
      2 Mn    c       0.000000      0.000000      0.000000      0.000000
      3 F     c      -0.002402      0.000000      0.000000      0.000000
      4 F     c       0.000000      0.000000      0.000000      0.000000
      5 F     s       0.001728      0.000000      0.000000      0.000000
      6 F     s       0.000000      0.000000      0.000000      0.000000
--------------------------------------------------------------------------------
  Maximum abs         0.002402      0.000000      0.000000      0.000000
--------------------------------------------------------------------------------


  Born effective charge tensors : 

-------------------------------------------------------------------------------
  Atom             x           y             z
-------------------------------------------------------------------------------
   1 K     x       1.5481      0.0000      0.0000
           y       0.0000      1.5481      0.0000
           z       0.0000      0.0000      1.5472
-------------------------------------------------------------------------------
   2 Mn    x       1.3634      0.0001      0.0000
           y      -0.0001      1.3634      0.0000
           z       0.0000      0.0000      1.3636
-------------------------------------------------------------------------------
   3 F     x      -0.9421     -0.0847      0.0000
           y      -0.0847     -0.9421      0.0000
           z       0.0000      0.0000     -1.0266
-------------------------------------------------------------------------------
   4 F     x      -1.0273      0.0000      0.0000
           y       0.0000     -1.0273      0.0000
           z       0.0000      0.0000     -0.8575
-------------------------------------------------------------------------------




  Elastic Constant Matrix: (Units=GPa)

-------------------------------------------------------------------------------
  Indices      1         2         3         4         5         6    
-------------------------------------------------------------------------------
       1    209.5849   90.1680   67.7360    0.0000    0.0000    0.0000
       2     90.1680  209.5849   67.7360    0.0000    0.0000    0.0000
       3     67.7360   67.7360  220.6234    0.0000    0.0000    0.0000
       4      0.0000    0.0000    0.0000   31.9325    0.0000    0.0000
       5      0.0000    0.0000    0.0000    0.0000   31.9325    0.0000
       6      0.0000    0.0000    0.0000    0.0000    0.0000   92.2307
-------------------------------------------------------------------------------


  Elastic Compliance Matrix: (Units=1/GPa)

-------------------------------------------------------------------------------
  Indices      1         2         3         4         5         6    
-------------------------------------------------------------------------------
       1    0.006124 -0.002250 -0.001189  0.000000  0.000000  0.000000
       2   -0.002250  0.006124 -0.001189  0.000000  0.000000  0.000000
       3   -0.001189 -0.001189  0.005263  0.000000  0.000000  0.000000
       4    0.000000  0.000000  0.000000  0.031316  0.000000  0.000000
       5    0.000000  0.000000  0.000000  0.000000  0.031316  0.000000
       6    0.000000  0.000000  0.000000  0.000000  0.000000  0.010842
-------------------------------------------------------------------------------

  Mechanical properties :

-------------------------------------------------------------------------------
  Convention :                    Reuss         Voigt         Hill
-------------------------------------------------------------------------------
  Bulk  Modulus (GPa)     =     121.16899     121.23036     121.19967
  Shear Modulus (GPa)     =      48.54676      58.82934      53.68805
-------------------------------------------------------------------------------
  Velocity S-wave (km/s)  =       3.26790       3.59737       3.43659
  Velocity P-wave (km/s)  =       6.39478       6.62742       6.51214
-------------------------------------------------------------------------------
  Compressibility (1/GPa) =    0.00825294
-------------------------------------------------------------------------------
  Stress axis :                     x             y             z
-------------------------------------------------------------------------------
  Youngs Moduli (GPa)     =     163.29741     163.29741     190.01041
-------------------------------------------------------------------------------
  Poissons Ratio (x)      =                     0.36746       0.22597
  Poissons Ratio (y)      =       0.36746                     0.22597
  Poissons Ratio (z)      =       0.19420       0.19420
-------------------------------------------------------------------------------


  Piezoelectric Strain Matrix: (Units=C/m**2)

-------------------------------------------------------------------------------
  Indices      1         2         3         4         5         6    
-------------------------------------------------------------------------------
       x     0.00000   0.00000   0.00000   0.00000   0.00000   0.00000
       y     0.00000   0.00000   0.00000   0.00000   0.00000   0.00000
       z     0.00000   0.00000   0.00000   0.00000   0.00000   0.00000
-------------------------------------------------------------------------------


  Piezoelectric Stress Matrix: (Units=10**-11 C/N)

-------------------------------------------------------------------------------
  Indices      1         2         3         4         5         6    
-------------------------------------------------------------------------------
       x     0.00000   0.00000   0.00000   0.00000   0.00000   0.00000
       y     0.00000   0.00000   0.00000   0.00000   0.00000   0.00000
       z     0.00000   0.00000   0.00000   0.00000   0.00000   0.00000
-------------------------------------------------------------------------------


  Static dielectric constant tensor : 

-------------------------------------------------------------------------------
              x         y         z
-------------------------------------------------------------------------------
       x     6.15442   0.00000   0.00000
       y     0.00000   6.15442   0.00000
       z     0.00000   0.00000   6.11193
--------------------------------------------------------------------------------

  High frequency dielectric constant tensor : 

-------------------------------------------------------------------------------
              x         y         z
-------------------------------------------------------------------------------
       x     1.71419   0.00000   0.00000
       y     0.00000   1.71419   0.00000
       z     0.00000   0.00000   1.71402
-------------------------------------------------------------------------------

  Static refractive indices : 

-------------------------------------------------------------------------------
    1 =    2.47223      2 =    2.48081      3 =    2.48081
-------------------------------------------------------------------------------

  High frequency refractive indices : 

-------------------------------------------------------------------------------
    1 =    1.30920      2 =    1.30927      3 =    1.30927
-------------------------------------------------------------------------------


  Time to end of optimisation =       0.1132 seconds


  Peak dynamic memory used =       0.59 MB 


  Timing analysis for GULP :

--------------------------------------------------------------------------------
  Task / Subroutine                                          Time (Seconds)
--------------------------------------------------------------------------------
  Calculation of reciprocal space energy and derivatives          0.0013
  Calculation of reciprocal space energy using symmetry           0.0039
  Calculation of real space energy and derivatives                0.0077
  Calculation of real space energy using symmetry                 0.0959
  Symmetry generation of equivalent positions                     0.0005
--------------------------------------------------------------------------------
  Total CPU time                                                  0.1132
--------------------------------------------------------------------------------


  CIF file written as perov.cif                                               


  Job Finished at 14:52.03 22nd February   2017                               

